s 1.000000000 _0_ AGT  --- 0 cbr 1000 [0 0 0 0] [energy 10.000000 ei 0.000 es 0.000 et 0.000 er 0.000] ------- [0:0 10:0 32 0] [0] 0 0
r 1.000000000 _0_ RTR  --- 0 cbr 1000 [0 0 0 0] [energy 10.000000 ei 0.000 es 0.000 et 0.000 er 0.000] ------- [0:0 10:0 32 0] [0] 0 0
s 1.000000000 _0_ RTR  --- 0 AODV 48 [0 0 0 0] [energy 10.000000 ei 0.000 es 0.000 et 0.000 er 0.000] ------- [0:255 -1:255 30 0] [0x2 1 1 [10 0] [0 4]] (REQUEST)
N -t 1.000536 -n 4 -e 9.899522
N -t 1.000536 -n 1 -e 9.899522
N -t 1.000536 -n 5 -e 9.899522
N -t 1.000536 -n 8 -e 9.899522
N -t 1.000536 -n 2 -e 9.899522
N -t 1.000536 -n 9 -e 9.899522
N -t 1.000536 -n 6 -e 9.899522
r 1.001408667 _4_ RTR  --- 0 AODV 48 [0 ffffffff 0 800] [energy 9.899522 ei 0.100 es 0.000 et 0.000 er 0.000] ------- [0:255 -1:255 30 0] [0x2 1 1 [10 0] [0 4]] (REQUEST)
r 1.001408667 _1_ RTR  --- 0 AODV 48 [0 ffffffff 0 800] [energy 9.899522 ei 0.100 es 0.000 et 0.000 er 0.000] ------- [0:255 -1:255 30 0] [0x2 1 1 [10 0] [0 4]] (REQUEST)
s 1.001550713 _4_ RTR  --- 0 AODV 48 [0 ffffffff 0 800] [energy 9.899522 ei 0.100 es 0.000 et 0.000 er 0.000] ------- [4:255 -1:255 29 0] [0x2 2 1 [10 0] [0 4]] (REQUEST)
N -t 1.001946 -n 0 -e 9.898618
N -t 1.001946 -n 8 -e 9.899042
N -t 1.001946 -n 5 -e 9.899042
N -t 1.001947 -n 1 -e 9.899042
N -t 1.001947 -n 9 -e 9.899042
N -t 1.001947 -n 12 -e 9.899381
N -t 1.001947 -n 6 -e 9.899042
N -t 1.001947 -n 13 -e 9.899381
N -t 1.001947 -n 2 -e 9.899042
N -t 1.001947 -n 10 -e 9.899381
s 1.002289893 _1_ RTR  --- 0 AODV 48 [0 ffffffff 0 800] [energy 9.899042 ei 0.100 es 0.000 et 0.000 er 0.001] ------- [1:255 -1:255 29 0] [0x2 2 1 [10 0] [0 4]] (REQUEST)
r 1.002819380 _0_ RTR  --- 0 AODV 48 [0 ffffffff 4 800] [energy 9.898618 ei 0.100 es 0.000 et 0.001 er 0.000] ------- [4:255 -1:255 29 0] [0x2 2 1 [10 0] [0 4]] (REQUEST)
r 1.002819380 _8_ RTR  --- 0 AODV 48 [0 ffffffff 4 800] [energy 9.899042 ei 0.100 es 0.000 et 0.000 er 0.001] ------- [4:255 -1:255 29 0] [0x2 2 1 [10 0] [0 4]] (REQUEST)
r 1.002819380 _5_ RTR  --- 0 AODV 48 [0 ffffffff 4 800] [energy 9.899042 ei 0.100 es 0.000 et 0.000 er 0.001] ------- [4:255 -1:255 29 0] [0x2 2 1 [10 0] [0 4]] (REQUEST)
N -t 1.003209 -n 0 -e 9.898153
N -t 1.003209 -n 5 -e 9.898577
N -t 1.003209 -n 2 -e 9.898577
N -t 1.003210 -n 4 -e 9.898153
N -t 1.003210 -n 6 -e 9.898577
N -t 1.003210 -n 9 -e 9.898577
N -t 1.003210 -n 3 -e 9.899255
N -t 1.003210 -n 8 -e 9.898577
N -t 1.003210 -n 10 -e 9.898916
N -t 1.003210 -n 7 -e 9.899255
r 1.004082323 _0_ RTR  --- 0 AODV 48 [0 ffffffff 1 800] [energy 9.898153 ei 0.100 es 0.000 et 0.001 er 0.001] ------- [1:255 -1:255 29 0] [0x2 2 1 [10 0] [0 4]] (REQUEST)
r 1.004082323 _5_ RTR  --- 0 AODV 48 [0 ffffffff 1 800] [energy 9.898577 ei 0.100 es 0.000 et 0.000 er 0.001] ------- [1:255 -1:255 29 0] [0x2 2 1 [10 0] [0 4]] (REQUEST)
r 1.004082323 _2_ RTR  --- 0 AODV 48 [0 ffffffff 1 800] [energy 9.898577 ei 0.100 es 0.000 et 0.000 er 0.001] ------- [1:255 -1:255 29 0] [0x2 2 1 [10 0] [0 4]] (REQUEST)
s 1.005165397 _5_ RTR  --- 0 AODV 48 [0 ffffffff 4 800] [energy 9.898577 ei 0.100 es 0.000 et 0.000 er 0.001] ------- [5:255 -1:255 28 0] [0x2 3 1 [10 0] [0 4]] (REQUEST)
N -t 1.005481 -n 1 -e 9.897586
N -t 1.005481 -n 4 -e 9.897586
N -t 1.005481 -n 9 -e 9.898010
N -t 1.005481 -n 6 -e 9.898010
N -t 1.005481 -n 8 -e 9.898010
N -t 1.005481 -n 0 -e 9.897586
N -t 1.005481 -n 2 -e 9.898010
N -t 1.005481 -n 10 -e 9.898349
N -t 1.005482 -n 13 -e 9.898689
N -t 1.005482 -n 7 -e 9.898689
N -t 1.005482 -n 12 -e 9.898689
N -t 1.005482 -n 14 -e 9.899028
N -t 1.005482 -n 3 -e 9.898689
N -t 1.005482 -n 11 -e 9.899028
r 1.006354064 _1_ RTR  --- 0 AODV 48 [0 ffffffff 5 800] [energy 9.897586 ei 0.100 es 0.000 et 0.001 er 0.001] ------- [5:255 -1:255 28 0] [0x2 3 1 [10 0] [0 4]] (REQUEST)
r 1.006354064 _4_ RTR  --- 0 AODV 48 [0 ffffffff 5 800] [energy 9.897586 ei 0.100 es 0.000 et 0.001 er 0.001] ------- [5:255 -1:255 28 0] [0x2 3 1 [10 0] [0 4]] (REQUEST)
r 1.006354064 _9_ RTR  --- 0 AODV 48 [0 ffffffff 5 800] [energy 9.898010 ei 0.100 es 0.000 et 0.000 er 0.002] ------- [5:255 -1:255 28 0] [0x2 3 1 [10 0] [0 4]] (REQUEST)
r 1.006354064 _6_ RTR  --- 0 AODV 48 [0 ffffffff 5 800] [energy 9.898010 ei 0.100 es 0.000 et 0.000 er 0.002] ------- [5:255 -1:255 28 0] [0x2 3 1 [10 0] [0 4]] (REQUEST)
s 1.006782010 _9_ RTR  --- 0 AODV 48 [0 ffffffff 5 800] [energy 9.898010 ei 0.100 es 0.000 et 0.000 er 0.002] ------- [9:255 -1:255 27 0] [0x2 4 1 [10 0] [0 4]] (REQUEST)
s 1.007173113 _2_ RTR  --- 0 AODV 48 [0 ffffffff 1 800] [energy 9.898010 ei 0.100 es 0.000 et 0.000 er 0.002] ------- [2:255 -1:255 28 0] [0x2 3 1 [10 0] [0 4]] (REQUEST)
N -t 1.007218 -n 5 -e 9.897073
N -t 1.007218 -n 8 -e 9.897497
N -t 1.007218 -n 13 -e 9.898176
N -t 1.007218 -n 10 -e 9.897837
N -t 1.007218 -n 12 -e 9.898176
N -t 1.007218 -n 4 -e 9.897073
N -t 1.007218 -n 6 -e 9.897497
N -t 1.007218 -n 14 -e 9.898515
N -t 1.007218 -n 1 -e 9.897073
N -t 1.007218 -n 11 -e 9.898515
N -t 1.007219 -n 0 -e 9.897073
N -t 1.007219 -n 2 -e 9.897497
N -t 1.007219 -n 7 -e 9.898176
N -t 1.007219 -n 15 -e 9.898854
s 1.008000000 _0_ AGT  --- 1 cbr 1000 [0 0 0 0] [energy 9.897073 ei 0.100 es 0.000 et 0.001 er 0.002] ------- [0:0 10:0 32 0] [1] 0 0
r 1.008000000 _0_ RTR  --- 1 cbr 1000 [0 0 0 0] [energy 9.897073 ei 0.100 es 0.000 et 0.001 er 0.002] ------- [0:0 10:0 32 0] [1] 0 0
r 1.008090676 _5_ RTR  --- 0 AODV 48 [0 ffffffff 9 800] [energy 9.897073 ei 0.100 es 0.000 et 0.001 er 0.002] ------- [9:255 -1:255 27 0] [0x2 4 1 [10 0] [0 4]] (REQUEST)
r 1.008090676 _8_ RTR  --- 0 AODV 48 [0 ffffffff 9 800] [energy 9.897497 ei 0.100 es 0.000 et 0.000 er 0.002] ------- [9:255 -1:255 27 0] [0x2 4 1 [10 0] [0 4]] (REQUEST)
r 1.008090676 _13_ RTR  --- 0 AODV 48 [0 ffffffff 9 800] [energy 9.898176 ei 0.101 es 0.000 et 0.000 er 0.001] ------- [9:255 -1:255 27 0] [0x2 4 1 [10 0] [0 4]] (REQUEST)
r 1.008090676 _10_ RTR  --- 0 AODV 48 [0 ffffffff 9 800] [energy 9.897837 ei 0.100 es 0.000 et 0.000 er 0.002] ------- [9:255 -1:255 27 0] [0x2 4 1 [10 0] [0 4]] (REQUEST)
s 1.008090676 _10_ RTR  --- 0 AODV 44 [0 0 0 0] [energy 9.897837 ei 0.100 es 0.000 et 0.000 er 0.002] ------- [10:255 0:255 30 9] [0x4 1 [10 4] 10.000000] (REPLY)
N -t 1.008486 -n 6 -e 9.897111
N -t 1.008486 -n 9 -e 9.896687
N -t 1.008486 -n 14 -e 9.898129
N -t 1.008486 -n 11 -e 9.898129
N -t 1.008487 -n 13 -e 9.897790
N -t 1.008487 -n 5 -e 9.896687
N -t 1.008487 -n 7 -e 9.897790
N -t 1.008487 -n 15 -e 9.898468
N -t 1.008487 -n 2 -e 9.897111
N -t 1.008487 -n 8 -e 9.897111
N -t 1.008487 -n 1 -e 9.896687
N -t 1.008487 -n 12 -e 9.897790
N -t 1.008487 -n 4 -e 9.896687
N -t 1.008487 -n 3 -e 9.898129
N -t 1.009430 -n 5 -e 9.896486
N -t 1.009430 -n 8 -e 9.896910
N -t 1.009430 -n 13 -e 9.897588
N -t 1.009430 -n 10 -e 9.896905
N -t 1.009430 -n 12 -e 9.897588
N -t 1.009430 -n 4 -e 9.896486
N -t 1.009430 -n 6 -e 9.896910
N -t 1.009430 -n 14 -e 9.897927
N -t 1.009431 -n 1 -e 9.896486
N -t 1.009431 -n 11 -e 9.897927
N -t 1.009431 -n 0 -e 9.896761
N -t 1.009431 -n 2 -e 9.896910
N -t 1.009431 -n 7 -e 9.897588
N -t 1.009431 -n 15 -e 9.898267
N -t 1.009793 -n 6 -e 9.896757
N -t 1.009793 -n 9 -e 9.896157
N -t 1.009793 -n 14 -e 9.897774
N -t 1.009793 -n 11 -e 9.897774
N -t 1.009793 -n 13 -e 9.897435
N -t 1.009793 -n 5 -e 9.896333
N -t 1.009793 -n 7 -e 9.897435
N -t 1.009793 -n 15 -e 9.898114
N -t 1.009793 -n 2 -e 9.896757
N -t 1.009793 -n 8 -e 9.896757
N -t 1.009794 -n 1 -e 9.896333
N -t 1.009794 -n 12 -e 9.897435
N -t 1.009794 -n 4 -e 9.896333
N -t 1.009794 -n 3 -e 9.897915
s 1.009838729 _13_ RTR  --- 0 AODV 48 [0 ffffffff 9 800] [energy 9.897435 ei 0.101 es 0.000 et 0.000 er 0.002] ------- [13:255 -1:255 26 0] [0x2 5 1 [10 0] [0 4]] (REQUEST)
N -t 1.010107 -n 5 -e 9.895988
N -t 1.010107 -n 8 -e 9.896412
N -t 1.010107 -n 13 -e 9.897090
N -t 1.010107 -n 10 -e 9.896255
N -t 1.010108 -n 12 -e 9.897090
N -t 1.010108 -n 4 -e 9.895988
N -t 1.010108 -n 6 -e 9.896412
N -t 1.010108 -n 14 -e 9.897429
N -t 1.010108 -n 1 -e 9.895988
N -t 1.010108 -n 11 -e 9.897429
N -t 1.010108 -n 0 -e 9.896384
N -t 1.010108 -n 2 -e 9.896412
N -t 1.010108 -n 7 -e 9.897090
N -t 1.010108 -n 15 -e 9.897768
N -t 1.010806 -n 6 -e 9.896259
N -t 1.010806 -n 9 -e 9.895315
N -t 1.010806 -n 14 -e 9.897276
N -t 1.010806 -n 11 -e 9.897276
N -t 1.010806 -n 13 -e 9.896937
N -t 1.010806 -n 5 -e 9.895835
N -t 1.010806 -n 7 -e 9.896937
N -t 1.010806 -n 15 -e 9.897615
N -t 1.010807 -n 2 -e 9.896259
N -t 1.010807 -n 8 -e 9.896259
N -t 1.010807 -n 1 -e 9.895835
N -t 1.010807 -n 12 -e 9.896937
N -t 1.010807 -n 4 -e 9.895835
N -t 1.010807 -n 3 -e 9.897692
s 1.010984140 _8_ RTR  --- 0 AODV 48 [0 ffffffff 4 800] [energy 9.896259 ei 0.100 es 0.000 et 0.000 er 0.003] ------- [8:255 -1:255 28 0] [0x2 3 1 [10 0] [0 4]] (REQUEST)
N -t 1.011280 -n 6 -e 9.896066
N -t 1.011280 -n 9 -e 9.895122
N -t 1.011280 -n 14 -e 9.897083
N -t 1.011280 -n 11 -e 9.897083
N -t 1.011280 -n 13 -e 9.896744
N -t 1.011280 -n 5 -e 9.895642
N -t 1.011280 -n 7 -e 9.896744
N -t 1.011280 -n 15 -e 9.897422
N -t 1.011281 -n 2 -e 9.896066
N -t 1.011281 -n 8 -e 9.896066
N -t 1.011281 -n 1 -e 9.895642
N -t 1.011281 -n 12 -e 9.896744
N -t 1.011281 -n 4 -e 9.895642
N -t 1.011281 -n 3 -e 9.897499
N -t 1.011643 -n 5 -e 9.895489
N -t 1.011643 -n 8 -e 9.895913
N -t 1.011643 -n 13 -e 9.896591
N -t 1.011643 -n 10 -e 9.895428
N -t 1.011643 -n 12 -e 9.896591
N -t 1.011643 -n 4 -e 9.895489
N -t 1.011643 -n 6 -e 9.895913
N -t 1.011643 -n 14 -e 9.896930
N -t 1.011643 -n 1 -e 9.895488
N -t 1.011643 -n 11 -e 9.896930
N -t 1.011644 -n 0 -e 9.896148
N -t 1.011644 -n 2 -e 9.895912
N -t 1.011644 -n 7 -e 9.896591
N -t 1.011644 -n 15 -e 9.897269
N -t 1.011957 -n 6 -e 9.895503
N -t 1.011957 -n 9 -e 9.894407
N -t 1.011957 -n 14 -e 9.896521
N -t 1.011957 -n 11 -e 9.896521
N -t 1.011958 -n 13 -e 9.896182
N -t 1.011958 -n 5 -e 9.895079
N -t 1.011958 -n 7 -e 9.896182
N -t 1.011958 -n 15 -e 9.896860
N -t 1.011958 -n 2 -e 9.895503
N -t 1.011958 -n 8 -e 9.895503
N -t 1.011958 -n 1 -e 9.895079
N -t 1.011958 -n 12 -e 9.896182
N -t 1.011958 -n 4 -e 9.895079
N -t 1.011958 -n 3 -e 9.897059
s 1.012754741 _6_ RTR  --- 0 AODV 48 [0 ffffffff 5 800] [energy 9.895503 ei 0.100 es 0.000 et 0.000 er 0.004] ------- [6:255 -1:255 27 0] [0x2 4 1 [10 0] [0 4]] (REQUEST)
N -t 1.012784 -n 5 -e 9.894926
N -t 1.012784 -n 8 -e 9.895350
N -t 1.012784 -n 13 -e 9.896029
N -t 1.012784 -n 10 -e 9.894458
N -t 1.012784 -n 12 -e 9.896029
N -t 1.012784 -n 4 -e 9.894926
N -t 1.012784 -n 6 -e 9.895350
N -t 1.012784 -n 14 -e 9.896368
N -t 1.012785 -n 1 -e 9.894926
N -t 1.012785 -n 11 -e 9.896368
N -t 1.012785 -n 0 -e 9.895912
N -t 1.012785 -n 2 -e 9.895350
N -t 1.012785 -n 7 -e 9.896029
N -t 1.012785 -n 15 -e 9.896707
r 1.012798343 _9_ RTR  --- 0 AODV 44 [13a 9 a 800] [energy 9.894102 ei 0.100 es 0.000 et 0.002 er 0.003] ------- [10:255 0:255 30 9] [0x4 1 [10 4] 10.000000] (REPLY)
f 1.012798343 _9_ RTR  --- 0 AODV 44 [13a 9 a 800] [energy 9.894102 ei 0.100 es 0.000 et 0.002 er 0.003] ------- [10:255 0:255 29 5] [0x4 2 [10 4] 10.000000] (REPLY)
N -t 1.013209 -n 4 -e 9.894490
N -t 1.013209 -n 12 -e 9.895593
N -t 1.013209 -n 9 -e 9.893666
N -t 1.013209 -n 5 -e 9.894490
N -t 1.013209 -n 13 -e 9.895593
N -t 1.013209 -n 0 -e 9.895476
N -t 1.013209 -n 10 -e 9.894021
N -t 1.013210 -n 1 -e 9.894490
N -t 1.013210 -n 6 -e 9.894914
N -t 1.013210 -n 14 -e 9.895932
N -t 1.013744 -n 1 -e 9.894223
N -t 1.013744 -n 6 -e 9.894647
N -t 1.013744 -n 3 -e 9.896538
N -t 1.013744 -n 5 -e 9.894223
N -t 1.013744 -n 7 -e 9.895539
N -t 1.013744 -n 0 -e 9.895208
N -t 1.013744 -n 10 -e 9.893754
N -t 1.013744 -n 9 -e 9.893399
N -t 1.013744 -n 4 -e 9.894223
N -t 1.013744 -n 11 -e 9.895878
r 1.014081676 _4_ RTR  --- 0 AODV 48 [0 ffffffff 8 800] [energy 9.894223 ei 0.100 es 0.000 et 0.001 er 0.004] ------- [8:255 -1:255 28 0] [0x2 3 1 [10 0] [0 4]] (REQUEST)
r 1.014081676 _12_ RTR  --- 0 AODV 48 [0 ffffffff 8 800] [energy 9.895593 ei 0.101 es 0.000 et 0.000 er 0.004] ------- [8:255 -1:255 28 0] [0x2 3 1 [10 0] [0 4]] (REQUEST)
r 1.014081676 _9_ RTR  --- 0 AODV 48 [0 ffffffff 8 800] [energy 9.893399 ei 0.100 es 0.000 et 0.002 er 0.004] ------- [8:255 -1:255 28 0] [0x2 3 1 [10 0] [0 4]] (REQUEST)
r 1.014616500 _3_ RTR  --- 0 AODV 48 [0 ffffffff 2 800] [energy 9.896538 ei 0.101 es 0.000 et 0.000 er 0.003] ------- [2:255 -1:255 28 0] [0x2 3 1 [10 0] [0 4]] (REQUEST)
N -t 1.014672 -n 9 -e 9.892967
N -t 1.014672 -n 12 -e 9.895107
N -t 1.014672 -n 14 -e 9.895446
N -t 1.014672 -n 8 -e 9.894005
N -t 1.014672 -n 10 -e 9.893322
N -t 1.014672 -n 5 -e 9.893791
N -t 1.014672 -n 15 -e 9.896125
N -t 1.014672 -n 4 -e 9.893790
N -t 1.014672 -n 6 -e 9.894215
N -t 1.014672 -n 11 -e 9.895446
r 1.015544619 _9_ RTR  --- 0 AODV 48 [0 ffffffff d 800] [energy 9.892967 ei 0.100 es 0.000 et 0.002 er 0.004] ------- [13:255 -1:255 26 0] [0x2 5 1 [10 0] [0 4]] (REQUEST)
r 1.015544619 _12_ RTR  --- 0 AODV 48 [0 ffffffff d 800] [energy 9.895107 ei 0.101 es 0.000 et 0.000 er 0.004] ------- [13:255 -1:255 26 0] [0x2 5 1 [10 0] [0 4]] (REQUEST)
r 1.015544619 _14_ RTR  --- 0 AODV 48 [0 ffffffff d 800] [energy 9.895446 ei 0.101 es 0.000 et 0.000 er 0.004] ------- [13:255 -1:255 26 0] [0x2 5 1 [10 0] [0 4]] (REQUEST)
N -t 1.015650 -n 5 -e 9.893434
N -t 1.015650 -n 8 -e 9.893648
N -t 1.015650 -n 13 -e 9.894326
N -t 1.015650 -n 10 -e 9.892965
N -t 1.015651 -n 12 -e 9.894750
N -t 1.015651 -n 4 -e 9.893433
N -t 1.015651 -n 6 -e 9.893858
N -t 1.015651 -n 14 -e 9.895089
N -t 1.015651 -n 1 -e 9.893773
N -t 1.015651 -n 11 -e 9.895089
N -t 1.015651 -n 0 -e 9.894759
N -t 1.015651 -n 2 -e 9.893987
N -t 1.015651 -n 7 -e 9.895089
N -t 1.015651 -n 15 -e 9.895768
s 1.016000000 _0_ AGT  --- 2 cbr 1000 [0 0 0 0] [energy 9.894759 ei 0.101 es 0.000 et 0.001 er 0.004] ------- [0:0 10:0 32 0] [2] 0 0
r 1.016000000 _0_ RTR  --- 2 cbr 1000 [0 0 0 0] [energy 9.894759 ei 0.101 es 0.000 et 0.001 er 0.004] ------- [0:0 10:0 32 0] [2] 0 0
N -t 1.016534 -n 1 -e 9.893578
N -t 1.016534 -n 4 -e 9.893238
N -t 1.016534 -n 9 -e 9.892070
N -t 1.016534 -n 6 -e 9.893663
N -t 1.016534 -n 8 -e 9.893452
N -t 1.016534 -n 0 -e 9.894563
N -t 1.016534 -n 2 -e 9.893791
N -t 1.016534 -n 10 -e 9.892769
N -t 1.016535 -n 13 -e 9.894131
N -t 1.016535 -n 7 -e 9.894894
N -t 1.016535 -n 12 -e 9.894555
N -t 1.016535 -n 14 -e 9.894894
N -t 1.016535 -n 3 -e 9.896167
N -t 1.016535 -n 11 -e 9.894894
N -t 1.016897 -n 5 -e 9.892909
N -t 1.016897 -n 8 -e 9.893299
N -t 1.016897 -n 13 -e 9.893978
N -t 1.016897 -n 10 -e 9.892616
N -t 1.016897 -n 12 -e 9.894402
N -t 1.016897 -n 4 -e 9.893085
N -t 1.016897 -n 6 -e 9.893510
N -t 1.016897 -n 14 -e 9.894741
N -t 1.016897 -n 1 -e 9.893425
N -t 1.016897 -n 11 -e 9.894741
N -t 1.016897 -n 0 -e 9.894410
N -t 1.016897 -n 2 -e 9.893638
N -t 1.016897 -n 7 -e 9.894741
N -t 1.016897 -n 15 -e 9.895560
s 1.017028757 _3_ RTR  --- 0 AODV 48 [0 ffffffff 2 800] [energy 9.896167 ei 0.101 es 0.000 et 0.000 er 0.003] ------- [3:255 -1:255 27 0] [0x2 4 1 [10 0] [0 4]] (REQUEST)
N -t 1.017211 -n 1 -e 9.893080
N -t 1.017211 -n 4 -e 9.892740
N -t 1.017211 -n 9 -e 9.891420
N -t 1.017211 -n 6 -e 9.893164
N -t 1.017212 -n 8 -e 9.892954
N -t 1.017212 -n 0 -e 9.894065
N -t 1.017212 -n 2 -e 9.893293
N -t 1.017212 -n 10 -e 9.892271
N -t 1.017212 -n 13 -e 9.893632
N -t 1.017212 -n 7 -e 9.894396
N -t 1.017212 -n 12 -e 9.894056
N -t 1.017212 -n 14 -e 9.894396
N -t 1.017212 -n 3 -e 9.895791
N -t 1.017212 -n 11 -e 9.894396
N -t 1.017910 -n 5 -e 9.892067
N -t 1.017910 -n 8 -e 9.892801
N -t 1.017910 -n 13 -e 9.893479
N -t 1.017910 -n 10 -e 9.892118
N -t 1.017910 -n 12 -e 9.893903
N -t 1.017910 -n 4 -e 9.892587
N -t 1.017910 -n 6 -e 9.893011
N -t 1.017910 -n 14 -e 9.894243
N -t 1.017911 -n 1 -e 9.892927
N -t 1.017911 -n 11 -e 9.894243
N -t 1.017911 -n 0 -e 9.893912
N -t 1.017911 -n 2 -e 9.893140
N -t 1.017911 -n 7 -e 9.894243
N -t 1.017911 -n 15 -e 9.895337
N -t 1.018395 -n 2 -e 9.892698
N -t 1.018395 -n 7 -e 9.893801
N -t 1.018395 -n 6 -e 9.892569
N -t 1.018395 -n 1 -e 9.892484
N -t 1.018395 -n 11 -e 9.893800
N -t 1.018396 -n 10 -e 9.891676
N -t 1.018396 -n 5 -e 9.891625
N -t 1.018484 -n 5 -e 9.891625
N -t 1.018484 -n 8 -e 9.892598
N -t 1.018484 -n 13 -e 9.893276
N -t 1.018484 -n 10 -e 9.891676
N -t 1.018484 -n 12 -e 9.893700
N -t 1.018484 -n 4 -e 9.892384
N -t 1.018484 -n 6 -e 9.892569
N -t 1.018484 -n 14 -e 9.894040
N -t 1.018485 -n 1 -e 9.892484
N -t 1.018485 -n 11 -e 9.893800
N -t 1.018485 -n 0 -e 9.893709
N -t 1.018485 -n 2 -e 9.892698
N -t 1.018485 -n 7 -e 9.893801
N -t 1.018485 -n 15 -e 9.895134
N -t 1.019204 -n 5 -e 9.891469
N -t 1.019204 -n 8 -e 9.892385
N -t 1.019204 -n 13 -e 9.893064
N -t 1.019204 -n 10 -e 9.891520
N -t 1.019204 -n 12 -e 9.893488
N -t 1.019204 -n 4 -e 9.892171
N -t 1.019204 -n 6 -e 9.892413
N -t 1.019204 -n 14 -e 9.893827
N -t 1.019205 -n 1 -e 9.892328
N -t 1.019205 -n 11 -e 9.893644
N -t 1.019205 -n 0 -e 9.893496
N -t 1.019205 -n 2 -e 9.892541
N -t 1.019205 -n 7 -e 9.893644
N -t 1.019205 -n 15 -e 9.894921
r 1.019267777 _2_ RTR  --- 0 AODV 48 [0 ffffffff 3 800] [energy 9.892541 ei 0.101 es 0.000 et 0.001 er 0.006] ------- [3:255 -1:255 27 0] [0x2 4 1 [10 0] [0 4]] (REQUEST)
r 1.019267777 _7_ RTR  --- 0 AODV 48 [0 ffffffff 3 800] [energy 9.893644 ei 0.101 es 0.000 et 0.000 er 0.006] ------- [3:255 -1:255 27 0] [0x2 4 1 [10 0] [0 4]] (REQUEST)
N -t 1.020411 -n 2 -e 9.892032
N -t 1.020411 -n 5 -e 9.890959
N -t 1.020411 -n 10 -e 9.891010
N -t 1.020411 -n 7 -e 9.893134
N -t 1.020411 -n 9 -e 9.889837
N -t 1.020411 -n 1 -e 9.891818
N -t 1.020411 -n 3 -e 9.894352
N -t 1.020411 -n 11 -e 9.893134
N -t 1.020412 -n 4 -e 9.891661
N -t 1.020412 -n 14 -e 9.893317
N -t 1.020412 -n 13 -e 9.892554
N -t 1.020412 -n 8 -e 9.891876
N -t 1.020412 -n 0 -e 9.892986
N -t 1.020412 -n 15 -e 9.894412
r 1.021283895 _2_ RTR  --- 0 AODV 48 [0 ffffffff 6 800] [energy 9.892032 ei 0.101 es 0.000 et 0.001 er 0.006] ------- [6:255 -1:255 27 0] [0x2 4 1 [10 0] [0 4]] (REQUEST)
r 1.021283895 _5_ RTR  --- 0 AODV 48 [0 ffffffff 6 800] [energy 9.890959 ei 0.101 es 0.000 et 0.002 er 0.007] ------- [6:255 -1:255 27 0] [0x2 4 1 [10 0] [0 4]] (REQUEST)
r 1.021283895 _10_ RTR  --- 0 AODV 48 [0 ffffffff 6 800] [energy 9.891010 ei 0.101 es 0.000 et 0.002 er 0.006] ------- [6:255 -1:255 27 0] [0x2 4 1 [10 0] [0 4]] (REQUEST)
r 1.021283895 _7_ RTR  --- 0 AODV 48 [0 ffffffff 6 800] [energy 9.893134 ei 0.101 es 0.000 et 0.000 er 0.006] ------- [6:255 -1:255 27 0] [0x2 4 1 [10 0] [0 4]] (REQUEST)
s 1.022318109 _14_ RTR  --- 0 AODV 48 [0 ffffffff d 800] [energy 9.893317 ei 0.101 es 0.000 et 0.000 er 0.006] ------- [14:255 -1:255 25 0] [0x2 6 1 [10 0] [0 4]] (REQUEST)
s 1.022479928 _12_ RTR  --- 0 AODV 48 [0 ffffffff 8 800] [energy 9.893488 ei 0.101 es 0.000 et 0.000 er 0.006] ------- [12:255 -1:255 27 0] [0x2 4 1 [10 0] [0 4]] (REQUEST)
N -t 1.022616 -n 8 -e 9.891316
N -t 1.022616 -n 13 -e 9.891994
N -t 1.022616 -n 9 -e 9.889278
N -t 1.022616 -n 4 -e 9.891102
N -t 1.022616 -n 14 -e 9.892758
N -t 1.022616 -n 5 -e 9.890399
N -t 1.022616 -n 10 -e 9.890451
r 1.023488595 _8_ RTR  --- 0 AODV 48 [0 ffffffff c 800] [energy 9.891316 ei 0.101 es 0.000 et 0.001 er 0.007] ------- [12:255 -1:255 27 0] [0x2 4 1 [10 0] [0 4]] (REQUEST)
r 1.023488595 _13_ RTR  --- 0 AODV 48 [0 ffffffff c 800] [energy 9.891994 ei 0.101 es 0.000 et 0.001 er 0.006] ------- [12:255 -1:255 27 0] [0x2 4 1 [10 0] [0 4]] (REQUEST)
s 1.024000000 _0_ AGT  --- 3 cbr 1000 [0 0 0 0] [energy 9.892986 ei 0.101 es 0.000 et 0.001 er 0.005] ------- [0:0 10:0 32 0] [3] 0 0
r 1.024000000 _0_ RTR  --- 3 cbr 1000 [0 0 0 0] [energy 9.892986 ei 0.101 es 0.000 et 0.001 er 0.005] ------- [0:0 10:0 32 0] [3] 0 0
N -t 1.024239 -n 10 -e 9.889949
N -t 1.024239 -n 13 -e 9.891493
N -t 1.024239 -n 15 -e 9.893690
N -t 1.024239 -n 9 -e 9.888776
N -t 1.024239 -n 11 -e 9.892412
N -t 1.024240 -n 6 -e 9.890757
N -t 1.024240 -n 12 -e 9.891832
N -t 1.024240 -n 5 -e 9.889898
N -t 1.024240 -n 8 -e 9.890814
N -t 1.024240 -n 7 -e 9.892412
r 1.025111928 _10_ RTR  --- 0 AODV 48 [0 ffffffff e 800] [energy 9.889949 ei 0.101 es 0.000 et 0.002 er 0.007] ------- [14:255 -1:255 25 0] [0x2 6 1 [10 0] [0 4]] (REQUEST)
r 1.025111928 _13_ RTR  --- 0 AODV 48 [0 ffffffff e 800] [energy 9.891493 ei 0.101 es 0.000 et 0.001 er 0.007] ------- [14:255 -1:255 25 0] [0x2 6 1 [10 0] [0 4]] (REQUEST)
r 1.025111928 _15_ RTR  --- 0 AODV 48 [0 ffffffff e 800] [energy 9.893690 ei 0.102 es 0.000 et 0.000 er 0.005] ------- [14:255 -1:255 25 0] [0x2 6 1 [10 0] [0 4]] (REQUEST)
N -t 1.026142 -n 5 -e 9.889617
N -t 1.026142 -n 8 -e 9.890533
N -t 1.026142 -n 13 -e 9.891211
N -t 1.026142 -n 10 -e 9.889668
N -t 1.026142 -n 12 -e 9.891551
N -t 1.026142 -n 4 -e 9.890658
N -t 1.026142 -n 6 -e 9.890476
N -t 1.026142 -n 14 -e 9.891551
N -t 1.026143 -n 1 -e 9.891154
N -t 1.026143 -n 11 -e 9.892131
N -t 1.026143 -n 0 -e 9.892322
N -t 1.026143 -n 2 -e 9.891367
N -t 1.026143 -n 7 -e 9.892131
N -t 1.026143 -n 15 -e 9.893408
N -t 1.026505 -n 1 -e 9.891001
N -t 1.026505 -n 4 -e 9.890505
N -t 1.026505 -n 9 -e 9.888166
N -t 1.026505 -n 6 -e 9.890323
N -t 1.026505 -n 8 -e 9.890380
N -t 1.026505 -n 0 -e 9.892169
N -t 1.026505 -n 2 -e 9.891214
N -t 1.026505 -n 10 -e 9.889515
N -t 1.026505 -n 13 -e 9.891058
N -t 1.026505 -n 7 -e 9.891977
N -t 1.026505 -n 12 -e 9.891397
N -t 1.026505 -n 14 -e 9.891397
N -t 1.026505 -n 3 -e 9.893676
N -t 1.026505 -n 11 -e 9.891978
N -t 1.026819 -n 5 -e 9.888902
N -t 1.026819 -n 8 -e 9.889971
N -t 1.026819 -n 13 -e 9.890649
N -t 1.026819 -n 10 -e 9.889106
N -t 1.026819 -n 12 -e 9.890988
N -t 1.026819 -n 4 -e 9.890096
N -t 1.026819 -n 6 -e 9.889914
N -t 1.026819 -n 14 -e 9.890988
N -t 1.026820 -n 1 -e 9.890592
N -t 1.026820 -n 11 -e 9.891569
N -t 1.026820 -n 0 -e 9.891760
N -t 1.026820 -n 2 -e 9.890805
N -t 1.026820 -n 7 -e 9.891568
N -t 1.026820 -n 15 -e 9.892968
N -t 1.027646 -n 1 -e 9.890439
N -t 1.027646 -n 4 -e 9.889943
N -t 1.027646 -n 9 -e 9.887196
N -t 1.027646 -n 6 -e 9.889761
N -t 1.027646 -n 8 -e 9.889818
N -t 1.027646 -n 0 -e 9.891607
N -t 1.027646 -n 2 -e 9.890652
N -t 1.027646 -n 10 -e 9.888953
N -t 1.027647 -n 13 -e 9.890496
N -t 1.027647 -n 7 -e 9.891415
N -t 1.027647 -n 12 -e 9.890835
N -t 1.027647 -n 14 -e 9.890835
N -t 1.027647 -n 3 -e 9.893440
N -t 1.027647 -n 11 -e 9.891416
r 1.027660205 _5_ RTR  --- 0 AODV 44 [13a 5 9 800] [energy 9.888597 ei 0.101 es 0.000 et 0.002 er 0.008] ------- [10:255 0:255 29 5] [0x4 2 [10 4] 10.000000] (REPLY)
f 1.027660205 _5_ RTR  --- 0 AODV 44 [13a 5 9 800] [energy 9.888597 ei 0.101 es 0.000 et 0.002 er 0.008] ------- [10:255 0:255 28 4] [0x4 3 [10 4] 10.000000] (REPLY)
s 1.028142212 _7_ RTR  --- 0 AODV 48 [0 ffffffff 3 800] [energy 9.891415 ei 0.101 es 0.000 et 0.000 er 0.007] ------- [7:255 -1:255 26 0] [0x2 5 1 [10 0] [0 4]] (REQUEST)
N -t 1.028280 -n 1 -e 9.890062
N -t 1.028280 -n 4 -e 9.889566
N -t 1.028280 -n 9 -e 9.886819
N -t 1.028280 -n 6 -e 9.889384
N -t 1.028280 -n 8 -e 9.889441
N -t 1.028280 -n 0 -e 9.891230
N -t 1.028280 -n 2 -e 9.890275
N -t 1.028280 -n 10 -e 9.888576
N -t 1.028281 -n 13 -e 9.890119
N -t 1.028281 -n 7 -e 9.891038
N -t 1.028281 -n 12 -e 9.890458
N -t 1.028281 -n 14 -e 9.890458
N -t 1.028281 -n 3 -e 9.893063
N -t 1.028281 -n 11 -e 9.891039
s 1.028468556 _15_ RTR  --- 0 AODV 48 [0 ffffffff e 800] [energy 9.892968 ei 0.102 es 0.000 et 0.000 er 0.005] ------- [15:255 -1:255 24 0] [0x2 7 1 [10 0] [0 4]] (REQUEST)
N -t 1.029024 -n 11 -e 9.890609
N -t 1.029024 -n 14 -e 9.890029
N -t 1.029024 -n 10 -e 9.888146
N -t 1.029025 -n 7 -e 9.890609
N -t 1.029025 -n 13 -e 9.889690
N -t 1.029025 -n 6 -e 9.888954
N -t 1.029025 -n 9 -e 9.886389
N -t 1.029244 -n 0 -e 9.891027
N -t 1.029244 -n 8 -e 9.889237
N -t 1.029244 -n 5 -e 9.887673
N -t 1.029244 -n 1 -e 9.889858
N -t 1.029244 -n 9 -e 9.886389
N -t 1.029244 -n 12 -e 9.890255
N -t 1.029244 -n 6 -e 9.888954
N -t 1.029244 -n 13 -e 9.889690
N -t 1.029244 -n 2 -e 9.890072
N -t 1.029244 -n 10 -e 9.888146
N -t 1.029606 -n 1 -e 9.889705
N -t 1.029606 -n 4 -e 9.889033
N -t 1.029606 -n 9 -e 9.886370
N -t 1.029606 -n 6 -e 9.888935
N -t 1.029606 -n 8 -e 9.889084
N -t 1.029606 -n 0 -e 9.890873
N -t 1.029606 -n 2 -e 9.889919
N -t 1.029606 -n 10 -e 9.888127
N -t 1.029607 -n 13 -e 9.889671
N -t 1.029607 -n 7 -e 9.890590
N -t 1.029607 -n 12 -e 9.890102
N -t 1.029607 -n 14 -e 9.890009
N -t 1.029607 -n 3 -e 9.892847
N -t 1.029607 -n 11 -e 9.890590
r 1.029897223 _11_ RTR  --- 0 AODV 48 [0 ffffffff f 800] [energy 9.890590 ei 0.101 es 0.000 et 0.000 er 0.008] ------- [15:255 -1:255 24 0] [0x2 7 1 [10 0] [0 4]] (REQUEST)
r 1.029897223 _14_ RTR  --- 0 AODV 48 [0 ffffffff f 800] [energy 9.890009 ei 0.101 es 0.000 et 0.001 er 0.008] ------- [15:255 -1:255 24 0] [0x2 7 1 [10 0] [0 4]] (REQUEST)
N -t 1.029921 -n 0 -e 9.890528
N -t 1.029921 -n 8 -e 9.888739
N -t 1.029921 -n 5 -e 9.887023
N -t 1.029921 -n 1 -e 9.889360
N -t 1.029921 -n 9 -e 9.886025
N -t 1.029922 -n 12 -e 9.889757
N -t 1.029922 -n 6 -e 9.888590
N -t 1.029922 -n 13 -e 9.889325
N -t 1.029922 -n 2 -e 9.889573
N -t 1.029922 -n 10 -e 9.887782
N -t 1.030606 -n 3 -e 9.892354
N -t 1.030606 -n 6 -e 9.888168
N -t 1.030606 -n 11 -e 9.890096
N -t 1.030606 -n 10 -e 9.887360
N -t 1.030606 -n 2 -e 9.889151
N -t 1.030606 -n 5 -e 9.886600
N -t 1.030606 -n 15 -e 9.891483
N -t 1.030606 -n 14 -e 9.889516
N -t 1.030606 -n 9 -e 9.885603
N -t 1.030606 -n 1 -e 9.888938
N -t 1.030620 -n 1 -e 9.888938
N -t 1.030620 -n 4 -e 9.888191
N -t 1.030620 -n 9 -e 9.885603
N -t 1.030620 -n 6 -e 9.888168
N -t 1.030620 -n 8 -e 9.888586
N -t 1.030620 -n 0 -e 9.890375
N -t 1.030620 -n 2 -e 9.889151
N -t 1.030620 -n 10 -e 9.887360
N -t 1.030620 -n 13 -e 9.889172
N -t 1.030620 -n 7 -e 9.889672
N -t 1.030620 -n 12 -e 9.889604
N -t 1.030620 -n 14 -e 9.889516
N -t 1.030620 -n 3 -e 9.892354
N -t 1.030620 -n 11 -e 9.890096
r 1.031478538 _3_ RTR  --- 0 AODV 48 [0 ffffffff 7 800] [energy 9.892354 ei 0.102 es 0.000 et 0.001 er 0.005] ------- [7:255 -1:255 26 0] [0x2 5 1 [10 0] [0 4]] (REQUEST)
r 1.031478538 _11_ RTR  --- 0 AODV 48 [0 ffffffff 7 800] [energy 9.890096 ei 0.101 es 0.000 et 0.000 er 0.008] ------- [7:255 -1:255 26 0] [0x2 5 1 [10 0] [0 4]] (REQUEST)
s 1.032000000 _0_ AGT  --- 4 cbr 1000 [0 0 0 0] [energy 9.890375 ei 0.102 es 0.000 et 0.001 er 0.007] ------- [0:0 10:0 32 0] [4] 0 0
r 1.032000000 _0_ RTR  --- 4 cbr 1000 [0 0 0 0] [energy 9.890375 ei 0.102 es 0.000 et 0.001 er 0.007] ------- [0:0 10:0 32 0] [4] 0 0
N -t 1.032089 -n 1 -e 9.888698
N -t 1.032089 -n 4 -e 9.887898
N -t 1.032089 -n 9 -e 9.885363
N -t 1.032089 -n 6 -e 9.887929
N -t 1.032089 -n 8 -e 9.888293
N -t 1.032089 -n 0 -e 9.890083
N -t 1.032089 -n 2 -e 9.888912
N -t 1.032089 -n 10 -e 9.887120
N -t 1.032090 -n 13 -e 9.888880
N -t 1.032090 -n 7 -e 9.889433
N -t 1.032090 -n 12 -e 9.889311
N -t 1.032090 -n 14 -e 9.889276
N -t 1.032090 -n 3 -e 9.892114
N -t 1.032090 -n 11 -e 9.889857
N -t 1.032452 -n 0 -e 9.889930
N -t 1.032452 -n 8 -e 9.888140
N -t 1.032452 -n 5 -e 9.886031
N -t 1.032452 -n 1 -e 9.888545
N -t 1.032452 -n 9 -e 9.885210
N -t 1.032452 -n 12 -e 9.889158
N -t 1.032452 -n 6 -e 9.887775
N -t 1.032452 -n 13 -e 9.888727
N -t 1.032452 -n 2 -e 9.888759
N -t 1.032452 -n 10 -e 9.886967
N -t 1.032766 -n 1 -e 9.888136
N -t 1.032766 -n 4 -e 9.887184
N -t 1.032766 -n 9 -e 9.884801
N -t 1.032766 -n 6 -e 9.887366
N -t 1.032766 -n 8 -e 9.887731
N -t 1.032766 -n 0 -e 9.889521
N -t 1.032766 -n 2 -e 9.888350
N -t 1.032766 -n 10 -e 9.886558
N -t 1.032767 -n 13 -e 9.888318
N -t 1.032767 -n 7 -e 9.888992
N -t 1.032767 -n 12 -e 9.888749
N -t 1.032767 -n 14 -e 9.888836
N -t 1.032767 -n 3 -e 9.891674
N -t 1.032767 -n 11 -e 9.889416
N -t 1.033593 -n 0 -e 9.889368
N -t 1.033593 -n 8 -e 9.887578
N -t 1.033593 -n 5 -e 9.885061
N -t 1.033593 -n 1 -e 9.887983
N -t 1.033593 -n 9 -e 9.884648
N -t 1.033594 -n 12 -e 9.888596
N -t 1.033594 -n 6 -e 9.887213
N -t 1.033594 -n 13 -e 9.888165
N -t 1.033594 -n 2 -e 9.888197
N -t 1.033594 -n 10 -e 9.886405
r 1.033607205 _4_ RTR  --- 0 AODV 44 [13a 4 5 800] [energy 9.886879 ei 0.101 es 0.000 et 0.002 er 0.009] ------- [10:255 0:255 28 4] [0x4 3 [10 4] 10.000000] (REPLY)
f 1.033607205 _4_ RTR  --- 0 AODV 44 [13a 4 5 800] [energy 9.886879 ei 0.101 es 0.000 et 0.002 er 0.009] ------- [10:255 0:255 27 0] [0x4 4 [10 4] 10.000000] (REPLY)
N -t 1.033947 -n 0 -e 9.889019
N -t 1.033947 -n 8 -e 9.887229
N -t 1.033947 -n 5 -e 9.884712
N -t 1.033947 -n 1 -e 9.887634
N -t 1.033947 -n 9 -e 9.884299
N -t 1.033948 -n 12 -e 9.888247
N -t 1.033948 -n 6 -e 9.886864
N -t 1.033948 -n 13 -e 9.887816
N -t 1.033948 -n 2 -e 9.887848
N -t 1.033948 -n 10 -e 9.886056
N -t 1.034971 -n 4 -e 9.885977
N -t 1.034971 -n 1 -e 9.887424
N -t 1.034971 -n 5 -e 9.884503
N -t 1.034971 -n 8 -e 9.887020
N -t 1.034971 -n 2 -e 9.887638
N -t 1.034971 -n 9 -e 9.884089
N -t 1.034971 -n 6 -e 9.886655
N -t 1.035333 -n 0 -e 9.888480
N -t 1.035333 -n 8 -e 9.886867
N -t 1.035333 -n 5 -e 9.884350
N -t 1.035333 -n 1 -e 9.887271
N -t 1.035333 -n 9 -e 9.883936
N -t 1.035334 -n 12 -e 9.888025
N -t 1.035334 -n 6 -e 9.886502
N -t 1.035334 -n 13 -e 9.887594
N -t 1.035334 -n 2 -e 9.887485
N -t 1.035334 -n 10 -e 9.885834
s 1.035445619 _11_ RTR  --- 0 AODV 48 [0 ffffffff f 800] [energy 9.889416 ei 0.102 es 0.000 et 0.000 er 0.009] ------- [11:255 -1:255 23 0] [0x2 8 1 [10 0] [0 4]] (REQUEST)
N -t 1.035541 -n 7 -e 9.888372
N -t 1.035541 -n 10 -e 9.885458
N -t 1.035541 -n 15 -e 9.890651
N -t 1.035542 -n 14 -e 9.888216
N -t 1.035542 -n 6 -e 9.886126
N -t 1.035542 -n 3 -e 9.891054
N -t 1.035542 -n 9 -e 9.883560
N -t 1.035542 -n 2 -e 9.887109
N -t 1.035542 -n 13 -e 9.887218
N -t 1.035542 -n 5 -e 9.883973
N -t 1.035648 -n 4 -e 9.885327
N -t 1.035648 -n 1 -e 9.886926
N -t 1.035648 -n 5 -e 9.883973
N -t 1.035649 -n 8 -e 9.886522
N -t 1.035649 -n 2 -e 9.887109
N -t 1.035649 -n 9 -e 9.883560
N -t 1.035649 -n 6 -e 9.886126
N -t 1.036347 -n 0 -e 9.887638
N -t 1.036347 -n 8 -e 9.886369
N -t 1.036347 -n 5 -e 9.883843
N -t 1.036347 -n 1 -e 9.886773
N -t 1.036347 -n 9 -e 9.883430
N -t 1.036347 -n 12 -e 9.887802
N -t 1.036347 -n 6 -e 9.885995
N -t 1.036347 -n 13 -e 9.887087
N -t 1.036347 -n 2 -e 9.886978
N -t 1.036347 -n 10 -e 9.885327