n -t * -s 0  -x 200 -y 200 -Z 0 -z 60  -v circle -c green
n -t * -s 1  -x 400 -y 200 -Z 0 -z 60  -v circle -c green
n -t * -s 2  -x 600 -y 200 -Z 0 -z 60  -v circle -c green
n -t * -s 3  -x 800 -y 200 -Z 0 -z 60  -v circle -c green
n -t * -s 4  -x 200 -y 400 -Z 0 -z 60  -v circle -c green
n -t * -s 5  -x 400 -y 400 -Z 0 -z 60  -v circle -c green
n -t * -s 6  -x 600 -y 400 -Z 0 -z 60  -v circle -c green
n -t * -s 7  -x 800 -y 400 -Z 0 -z 60  -v circle -c green
n -t * -s 8  -x 200 -y 600 -Z 0 -z 60  -v circle -c green
n -t * -s 9  -x 400 -y 600 -Z 0 -z 60  -v circle -c green
n -t * -s 10  -x 600 -y 600 -Z 0 -z 60  -v circle -c green
n -t * -s 11  -x 800 -y 600 -Z 0 -z 60  -v circle -c green
n -t * -s 12  -x 200 -y 800 -Z 0 -z 60  -v circle -c green
n -t * -s 13  -x 400 -y 800 -Z 0 -z 60  -v circle -c green
n -t * -s 14  -x 600 -y 800 -Z 0 -z 60  -v circle -c green
n -t * -s 15  -x 800 -y 800 -Z 0 -z 60  -v circle -c green
V -t * -v 1.0a5 -a 0
W -t * -x 1000 -y 1000
A -t * -n 1 -p 0 -o 0x7fffffff -c 30 -a 1
A -t * -h 1 -m 1073741823 -s 0
n -t 0 -s 0 -S DLABEL -l "Source" -L ""
n -t 0 -s 10 -S DLABEL -l "Destination" -L ""
+ -t 1.000000000 -s 0 -d -1 -p cbr -e 1000 -c 2 -a 0 -i 0 -k AGT 
- -t 1.000000000 -s 0 -d -1 -p cbr -e 1000 -c 2 -a 0 -i 0 -k AGT
h -t 1.000000000 -s 0 -d -1 -p cbr -e 1000 -c 2 -a 0 -i 0 -k AGT
+ -t 1.000000000 -s 0 -d -1 -p AODV -e 48 -c 2 -a 0 -i 0 -k RTR 
- -t 1.000000000 -s 0 -d -1 -p AODV -e 48 -c 2 -a 0 -i 0 -k RTR
h -t 1.000000000 -s 0 -d -1 -p AODV -e 48 -c 2 -a 0 -i 0 -k RTR
r -t 1.001408667 -s 4 -d -1 -p AODV -e 48 -c 2 -a 0 -i 0 -k RTR
r -t 1.001408667 -s 1 -d -1 -p AODV -e 48 -c 2 -a 0 -i 0 -k RTR
+ -t 1.001550713 -s 4 -d -1 -p AODV -e 48 -c 2 -a 0 -i 0 -k RTR 
- -t 1.001550713 -s 4 -d -1 -p AODV -e 48 -c 2 -a 0 -i 0 -k RTR
h -t 1.001550713 -s 4 -d -1 -p AODV -e 48 -c 2 -a 0 -i 0 -k RTR
+ -t 1.002289893 -s 1 -d -1 -p AODV -e 48 -c 2 -a 0 -i 0 -k RTR 
- -t 1.002289893 -s 1 -d -1 -p AODV -e 48 -c 2 -a 0 -i 0 -k RTR
h -t 1.002289893 -s 1 -d -1 -p AODV -e 48 -c 2 -a 0 -i 0 -k RTR
r -t 1.002819380 -s 0 -d -1 -p AODV -e 48 -c 2 -a 0 -i 0 -k RTR
r -t 1.002819380 -s 8 -d -1 -p AODV -e 48 -c 2 -a 0 -i 0 -k RTR
r -t 1.002819380 -s 5 -d -1 -p AODV -e 48 -c 2 -a 0 -i 0 -k RTR
r -t 1.004082323 -s 0 -d -1 -p AODV -e 48 -c 2 -a 0 -i 0 -k RTR
r -t 1.004082323 -s 5 -d -1 -p AODV -e 48 -c 2 -a 0 -i 0 -k RTR
r -t 1.004082323 -s 2 -d -1 -p AODV -e 48 -c 2 -a 0 -i 0 -k RTR
+ -t 1.005165397 -s 5 -d -1 -p AODV -e 48 -c 2 -a 0 -i 0 -k RTR 
- -t 1.005165397 -s 5 -d -1 -p AODV -e 48 -c 2 -a 0 -i 0 -k RTR
h -t 1.005165397 -s 5 -d -1 -p AODV -e 48 -c 2 -a 0 -i 0 -k RTR
r -t 1.006354064 -s 1 -d -1 -p AODV -e 48 -c 2 -a 0 -i 0 -k RTR
r -t 1.006354064 -s 4 -d -1 -p AODV -e 48 -c 2 -a 0 -i 0 -k RTR
r -t 1.006354064 -s 9 -d -1 -p AODV -e 48 -c 2 -a 0 -i 0 -k RTR
r -t 1.006354064 -s 6 -d -1 -p AODV -e 48 -c 2 -a 0 -i 0 -k RTR
+ -t 1.006782010 -s 9 -d -1 -p AODV -e 48 -c 2 -a 0 -i 0 -k RTR 
- -t 1.006782010 -s 9 -d -1 -p AODV -e 48 -c 2 -a 0 -i 0 -k RTR
h -t 1.006782010 -s 9 -d -1 -p AODV -e 48 -c 2 -a 0 -i 0 -k RTR
+ -t 1.007173113 -s 2 -d -1 -p AODV -e 48 -c 2 -a 0 -i 0 -k RTR 
- -t 1.007173113 -s 2 -d -1 -p AODV -e 48 -c 2 -a 0 -i 0 -k RTR
h -t 1.007173113 -s 2 -d -1 -p AODV -e 48 -c 2 -a 0 -i 0 -k RTR
+ -t 1.008000000 -s 0 -d -1 -p cbr -e 1000 -c 2 -a 0 -i 1 -k AGT 
- -t 1.008000000 -s 0 -d -1 -p cbr -e 1000 -c 2 -a 0 -i 1 -k AGT
h -t 1.008000000 -s 0 -d -1 -p cbr -e 1000 -c 2 -a 0 -i 1 -k AGT
r -t 1.008090676 -s 5 -d -1 -p AODV -e 48 -c 2 -a 0 -i 0 -k RTR
r -t 1.008090676 -s 8 -d -1 -p AODV -e 48 -c 2 -a 0 -i 0 -k RTR
r -t 1.008090676 -s 13 -d -1 -p AODV -e 48 -c 2 -a 0 -i 0 -k RTR
r -t 1.008090676 -s 10 -d -1 -p AODV -e 48 -c 2 -a 0 -i 0 -k RTR
+ -t 1.008090676 -s 10 -d 9 -p AODV -e 44 -c 2 -a 0 -i 0 -k RTR 
- -t 1.008090676 -s 10 -d 9 -p AODV -e 44 -c 2 -a 0 -i 0 -k RTR
h -t 1.008090676 -s 10 -d 9 -p AODV -e 44 -c 2 -a 0 -i 0 -k RTR
+ -t 1.009838729 -s 13 -d -1 -p AODV -e 48 -c 2 -a 0 -i 0 -k RTR 
- -t 1.009838729 -s 13 -d -1 -p AODV -e 48 -c 2 -a 0 -i 0 -k RTR
h -t 1.009838729 -s 13 -d -1 -p AODV -e 48 -c 2 -a 0 -i 0 -k RTR
+ -t 1.010984140 -s 8 -d -1 -p AODV -e 48 -c 2 -a 0 -i 0 -k RTR 
- -t 1.010984140 -s 8 -d -1 -p AODV -e 48 -c 2 -a 0 -i 0 -k RTR
h -t 1.010984140 -s 8 -d -1 -p AODV -e 48 -c 2 -a 0 -i 0 -k RTR
+ -t 1.012754741 -s 6 -d -1 -p AODV -e 48 -c 2 -a 0 -i 0 -k RTR 
- -t 1.012754741 -s 6 -d -1 -p AODV -e 48 -c 2 -a 0 -i 0 -k RTR
h -t 1.012754741 -s 6 -d -1 -p AODV -e 48 -c 2 -a 0 -i 0 -k RTR
+ -t 1.012798343 -s 9 -d 5 -p AODV -e 44 -c 2 -a 0 -i 0 -k RTR 
- -t 1.012798343 -s 9 -d 5 -p AODV -e 44 -c 2 -a 0 -i 0 -k RTR
h -t 1.012798343 -s 9 -d 5 -p AODV -e 44 -c 2 -a 0 -i 0 -k RTR
r -t 1.014081676 -s 4 -d -1 -p AODV -e 48 -c 2 -a 0 -i 0 -k RTR
r -t 1.014081676 -s 12 -d -1 -p AODV -e 48 -c 2 -a 0 -i 0 -k RTR
r -t 1.014081676 -s 9 -d -1 -p AODV -e 48 -c 2 -a 0 -i 0 -k RTR
r -t 1.014616500 -s 3 -d -1 -p AODV -e 48 -c 2 -a 0 -i 0 -k RTR
r -t 1.015544619 -s 9 -d -1 -p AODV -e 48 -c 2 -a 0 -i 0 -k RTR
r -t 1.015544619 -s 12 -d -1 -p AODV -e 48 -c 2 -a 0 -i 0 -k RTR
r -t 1.015544619 -s 14 -d -1 -p AODV -e 48 -c 2 -a 0 -i 0 -k RTR
+ -t 1.016000000 -s 0 -d -1 -p cbr -e 1000 -c 2 -a 0 -i 2 -k AGT 
- -t 1.016000000 -s 0 -d -1 -p cbr -e 1000 -c 2 -a 0 -i 2 -k AGT
h -t 1.016000000 -s 0 -d -1 -p cbr -e 1000 -c 2 -a 0 -i 2 -k AGT
+ -t 1.017028757 -s 3 -d -1 -p AODV -e 48 -c 2 -a 0 -i 0 -k RTR 
- -t 1.017028757 -s 3 -d -1 -p AODV -e 48 -c 2 -a 0 -i 0 -k RTR
h -t 1.017028757 -s 3 -d -1 -p AODV -e 48 -c 2 -a 0 -i 0 -k RTR
r -t 1.019267777 -s 2 -d -1 -p AODV -e 48 -c 2 -a 0 -i 0 -k RTR
r -t 1.019267777 -s 7 -d -1 -p AODV -e 48 -c 2 -a 0 -i 0 -k RTR
r -t 1.021283895 -s 2 -d -1 -p AODV -e 48 -c 2 -a 0 -i 0 -k RTR
r -t 1.021283895 -s 5 -d -1 -p AODV -e 48 -c 2 -a 0 -i 0 -k RTR
r -t 1.021283895 -s 10 -d -1 -p AODV -e 48 -c 2 -a 0 -i 0 -k RTR
r -t 1.021283895 -s 7 -d -1 -p AODV -e 48 -c 2 -a 0 -i 0 -k RTR
+ -t 1.022318109 -s 14 -d -1 -p AODV -e 48 -c 2 -a 0 -i 0 -k RTR 
- -t 1.022318109 -s 14 -d -1 -p AODV -e 48 -c 2 -a 0 -i 0 -k RTR
h -t 1.022318109 -s 14 -d -1 -p AODV -e 48 -c 2 -a 0 -i 0 -k RTR
+ -t 1.022479928 -s 12 -d -1 -p AODV -e 48 -c 2 -a 0 -i 0 -k RTR 
- -t 1.022479928 -s 12 -d -1 -p AODV -e 48 -c 2 -a 0 -i 0 -k RTR
h -t 1.022479928 -s 12 -d -1 -p AODV -e 48 -c 2 -a 0 -i 0 -k RTR
r -t 1.023488595 -s 8 -d -1 -p AODV -e 48 -c 2 -a 0 -i 0 -k RTR
r -t 1.023488595 -s 13 -d -1 -p AODV -e 48 -c 2 -a 0 -i 0 -k RTR
+ -t 1.024000000 -s 0 -d -1 -p cbr -e 1000 -c 2 -a 0 -i 3 -k AGT 
- -t 1.024000000 -s 0 -d -1 -p cbr -e 1000 -c 2 -a 0 -i 3 -k AGT
h -t 1.024000000 -s 0 -d -1 -p cbr -e 1000 -c 2 -a 0 -i 3 -k AGT
r -t 1.025111928 -s 10 -d -1 -p AODV -e 48 -c 2 -a 0 -i 0 -k RTR
r -t 1.025111928 -s 13 -d -1 -p AODV -e 48 -c 2 -a 0 -i 0 -k RTR
r -t 1.025111928 -s 15 -d -1 -p AODV -e 48 -c 2 -a 0 -i 0 -k RTR
+ -t 1.027660205 -s 5 -d 4 -p AODV -e 44 -c 2 -a 0 -i 0 -k RTR 
- -t 1.027660205 -s 5 -d 4 -p AODV -e 44 -c 2 -a 0 -i 0 -k RTR
h -t 1.027660205 -s 5 -d 4 -p AODV -e 44 -c 2 -a 0 -i 0 -k RTR
+ -t 1.028142212 -s 7 -d -1 -p AODV -e 48 -c 2 -a 0 -i 0 -k RTR 
- -t 1.028142212 -s 7 -d -1 -p AODV -e 48 -c 2 -a 0 -i 0 -k RTR
h -t 1.028142212 -s 7 -d -1 -p AODV -e 48 -c 2 -a 0 -i 0 -k RTR
+ -t 1.028468556 -s 15 -d -1 -p AODV -e 48 -c 2 -a 0 -i 0 -k RTR 
- -t 1.028468556 -s 15 -d -1 -p AODV -e 48 -c 2 -a 0 -i 0 -k RTR
h -t 1.028468556 -s 15 -d -1 -p AODV -e 48 -c 2 -a 0 -i 0 -k RTR
r -t 1.029897223 -s 11 -d -1 -p AODV -e 48 -c 2 -a 0 -i 0 -k RTR
r -t 1.029897223 -s 14 -d -1 -p AODV -e 48 -c 2 -a 0 -i 0 -k RTR
r -t 1.031478538 -s 3 -d -1 -p AODV -e 48 -c 2 -a 0 -i 0 -k RTR
r -t 1.031478538 -s 11 -d -1 -p AODV -e 48 -c 2 -a 0 -i 0 -k RTR
+ -t 1.032000000 -s 0 -d -1 -p cbr -e 1000 -c 2 -a 0 -i 4 -k AGT 
- -t 1.032000000 -s 0 -d -1 -p cbr -e 1000 -c 2 -a 0 -i 4 -k AGT
h -t 1.032000000 -s 0 -d -1 -p cbr -e 1000 -c 2 -a 0 -i 4 -k AGT
+ -t 1.033607205 -s 4 -d 0 -p AODV -e 44 -c 2 -a 0 -i 0 -k RTR 
- -t 1.033607205 -s 4 -d 0 -p AODV -e 44 -c 2 -a 0 -i 0 -k RTR
h -t 1.033607205 -s 4 -d 0 -p AODV -e 44 -c 2 -a 0 -i 0 -k RTR
+ -t 1.035445619 -s 11 -d -1 -p AODV -e 48 -c 2 -a 0 -i 0 -k RTR 
- -t 1.035445619 -s 11 -d -1 -p AODV -e 48 -c 2 -a 0 -i 0 -k RTR
h -t 1.035445619 -s 11 -d -1 -p AODV -e 48 -c 2 -a 0 -i 0 -k RTR
r -t 1.036414286 -s 7 -d -1 -p AODV -e 48 -c 2 -a 0 -i 0 -k RTR
r -t 1.036414286 -s 15 -d -1 -p AODV -e 48 -c 2 -a 0 -i 0 -k RTR
+ -t 1.038238871 -s 0 -d 4 -p cbr -e 1020 -c 2 -a 0 -i 0 -k RTR 
- -t 1.038238871 -s 0 -d 4 -p cbr -e 1020 -c 2 -a 0 -i 0 -k RTR
h -t 1.038238871 -s 0 -d 4 -p cbr -e 1020 -c 2 -a 0 -i 0 -k RTR
+ -t 1.040000000 -s 0 -d -1 -p cbr -e 1000 -c 2 -a 0 -i 5 -k AGT 
- -t 1.040000000 -s 0 -d -1 -p cbr -e 1000 -c 2 -a 0 -i 5 -k AGT
h -t 1.040000000 -s 0 -d -1 -p cbr -e 1000 -c 2 -a 0 -i 5 -k AGT
+ -t 1.040000000 -s 0 -d 4 -p cbr -e 1020 -c 2 -a 0 -i 5 -k RTR 
- -t 1.040000000 -s 0 -d 4 -p cbr -e 1020 -c 2 -a 0 -i 5 -k RTR
h -t 1.040000000 -s 0 -d 4 -p cbr -e 1020 -c 2 -a 0 -i 5 -k RTR
+ -t 1.048000000 -s 0 -d -1 -p cbr -e 1000 -c 2 -a 0 -i 6 -k AGT 
- -t 1.048000000 -s 0 -d -1 -p cbr -e 1000 -c 2 -a 0 -i 6 -k AGT
h -t 1.048000000 -s 0 -d -1 -p cbr -e 1000 -c 2 -a 0 -i 6 -k AGT
+ -t 1.048000000 -s 0 -d 4 -p cbr -e 1020 -c 2 -a 0 -i 6 -k RTR 
- -t 1.048000000 -s 0 -d 4 -p cbr -e 1020 -c 2 -a 0 -i 6 -k RTR
h -t 1.048000000 -s 0 -d 4 -p cbr -e 1020 -c 2 -a 0 -i 6 -k RTR
+ -t 1.048144871 -s 4 -d 5 -p cbr -e 1020 -c 2 -a 0 -i 0 -k RTR 
- -t 1.048144871 -s 4 -d 5 -p cbr -e 1020 -c 2 -a 0 -i 0 -k RTR
h -t 1.048144871 -s 4 -d 5 -p cbr -e 1020 -c 2 -a 0 -i 0 -k RTR
+ -t 1.048238871 -s 0 -d 4 -p cbr -e 1020 -c 2 -a 0 -i 1 -k RTR 
- -t 1.048238871 -s 0 -d 4 -p cbr -e 1020 -c 2 -a 0 -i 1 -k RTR
h -t 1.048238871 -s 0 -d 4 -p cbr -e 1020 -c 2 -a 0 -i 1 -k RTR
+ -t 1.056000000 -s 0 -d -1 -p cbr -e 1000 -c 2 -a 0 -i 7 -k AGT 
- -t 1.056000000 -s 0 -d -1 -p cbr -e 1000 -c 2 -a 0 -i 7 -k AGT
h -t 1.056000000 -s 0 -d -1 -p cbr -e 1000 -c 2 -a 0 -i 7 -k AGT
+ -t 1.056000000 -s 0 -d 4 -p cbr -e 1020 -c 2 -a 0 -i 7 -k RTR 
- -t 1.056000000 -s 0 -d 4 -p cbr -e 1020 -c 2 -a 0 -i 7 -k RTR
h -t 1.056000000 -s 0 -d 4 -p cbr -e 1020 -c 2 -a 0 -i 7 -k RTR
+ -t 1.057851538 -s 4 -d 5 -p cbr -e 1020 -c 2 -a 0 -i 5 -k RTR 
- -t 1.057851538 -s 4 -d 5 -p cbr -e 1020 -c 2 -a 0 -i 5 -k RTR
h -t 1.057851538 -s 4 -d 5 -p cbr -e 1020 -c 2 -a 0 -i 5 -k RTR
+ -t 1.058238871 -s 0 -d 4 -p cbr -e 1020 -c 2 -a 0 -i 2 -k RTR 
- -t 1.058238871 -s 0 -d 4 -p cbr -e 1020 -c 2 -a 0 -i 2 -k RTR
h -t 1.058238871 -s 0 -d 4 -p cbr -e 1020 -c 2 -a 0 -i 2 -k RTR
+ -t 1.064000000 -s 0 -d -1 -p cbr -e 1000 -c 2 -a 0 -i 8 -k AGT 
- -t 1.064000000 -s 0 -d -1 -p cbr -e 1000 -c 2 -a 0 -i 8 -k AGT
h -t 1.064000000 -s 0 -d -1 -p cbr -e 1000 -c 2 -a 0 -i 8 -k AGT
+ -t 1.064000000 -s 0 -d 4 -p cbr -e 1020 -c 2 -a 0 -i 8 -k RTR 
- -t 1.064000000 -s 0 -d 4 -p cbr -e 1020 -c 2 -a 0 -i 8 -k RTR
h -t 1.064000000 -s 0 -d 4 -p cbr -e 1020 -c 2 -a 0 -i 8 -k RTR
+ -t 1.067777538 -s 5 -d 9 -p cbr -e 1020 -c 2 -a 0 -i 0 -k RTR 
- -t 1.067777538 -s 5 -d 9 -p cbr -e 1020 -c 2 -a 0 -i 0 -k RTR
h -t 1.067777538 -s 5 -d 9 -p cbr -e 1020 -c 2 -a 0 -i 0 -k RTR
+ -t 1.068238871 -s 0 -d 4 -p cbr -e 1020 -c 2 -a 0 -i 3 -k RTR 
- -t 1.068238871 -s 0 -d 4 -p cbr -e 1020 -c 2 -a 0 -i 3 -k RTR
h -t 1.068238871 -s 0 -d 4 -p cbr -e 1020 -c 2 -a 0 -i 3 -k RTR
+ -t 1.072000000 -s 0 -d -1 -p cbr -e 1000 -c 2 -a 0 -i 9 -k AGT 
- -t 1.072000000 -s 0 -d -1 -p cbr -e 1000 -c 2 -a 0 -i 9 -k AGT
h -t 1.072000000 -s 0 -d -1 -p cbr -e 1000 -c 2 -a 0 -i 9 -k AGT
+ -t 1.072000000 -s 0 -d 4 -p cbr -e 1020 -c 2 -a 0 -i 9 -k RTR 
- -t 1.072000000 -s 0 -d 4 -p cbr -e 1020 -c 2 -a 0 -i 9 -k RTR
h -t 1.072000000 -s 0 -d 4 -p cbr -e 1020 -c 2 -a 0 -i 9 -k RTR
+ -t 1.077563538 -s 9 -d 10 -p cbr -e 1020 -c 2 -a 0 -i 0 -k RTR 
- -t 1.077563538 -s 9 -d 10 -p cbr -e 1020 -c 2 -a 0 -i 0 -k RTR
h -t 1.077563538 -s 9 -d 10 -p cbr -e 1020 -c 2 -a 0 -i 0 -k RTR
+ -t 1.078238871 -s 0 -d 4 -p cbr -e 1020 -c 2 -a 0 -i 4 -k RTR 
- -t 1.078238871 -s 0 -d 4 -p cbr -e 1020 -c 2 -a 0 -i 4 -k RTR
h -t 1.078238871 -s 0 -d 4 -p cbr -e 1020 -c 2 -a 0 -i 4 -k RTR
+ -t 1.080000000 -s 0 -d -1 -p cbr -e 1000 -c 2 -a 0 -i 10 -k AGT 
- -t 1.080000000 -s 0 -d -1 -p cbr -e 1000 -c 2 -a 0 -i 10 -k AGT
h -t 1.080000000 -s 0 -d -1 -p cbr -e 1000 -c 2 -a 0 -i 10 -k AGT
+ -t 1.080000000 -s 0 -d 4 -p cbr -e 1020 -c 2 -a 0 -i 10 -k RTR 
- -t 1.080000000 -s 0 -d 4 -p cbr -e 1020 -c 2 -a 0 -i 10 -k RTR
h -t 1.080000000 -s 0 -d 4 -p cbr -e 1020 -c 2 -a 0 -i 10 -k RTR
r -t 1.087329538 -s 10 -d 10 -p cbr -e 1020 -c 2 -a 0 -i 0 -k AGT
+ -t 1.088000000 -s 0 -d -1 -p cbr -e 1000 -c 2 -a 0 -i 11 -k AGT 
- -t 1.088000000 -s 0 -d -1 -p cbr -e 1000 -c 2 -a 0 -i 11 -k AGT
h -t 1.088000000 -s 0 -d -1 -p cbr -e 1000 -c 2 -a 0 -i 11 -k AGT
+ -t 1.088000000 -s 0 -d 4 -p cbr -e 1020 -c 2 -a 0 -i 11 -k RTR 
- -t 1.088000000 -s 0 -d 4 -p cbr -e 1020 -c 2 -a 0 -i 11 -k RTR
h -t 1.088000000 -s 0 -d 4 -p cbr -e 1020 -c 2 -a 0 -i 11 -k RTR
+ -t 1.096000000 -s 0 -d -1 -p cbr -e 1000 -c 2 -a 0 -i 12 -k AGT 
- -t 1.096000000 -s 0 -d -1 -p cbr -e 1000 -c 2 -a 0 -i 12 -k AGT
h -t 1.096000000 -s 0 -d -1 -p cbr -e 1000 -c 2 -a 0 -i 12 -k AGT
+ -t 1.096000000 -s 0 -d 4 -p cbr -e 1020 -c 2 -a 0 -i 12 -k RTR 
- -t 1.096000000 -s 0 -d 4 -p cbr -e 1020 -c 2 -a 0 -i 12 -k RTR
h -t 1.096000000 -s 0 -d 4 -p cbr -e 1020 -c 2 -a 0 -i 12 -k RTR
+ -t 1.097266362 -s 4 -d 5 -p cbr -e 1020 -c 2 -a 0 -i 6 -k RTR 
- -t 1.097266362 -s 4 -d 5 -p cbr -e 1020 -c 2 -a 0 -i 6 -k RTR
h -t 1.097266362 -s 4 -d 5 -p cbr -e 1020 -c 2 -a 0 -i 6 -k RTR
+ -t 1.104000000 -s 0 -d -1 -p cbr -e 1000 -c 2 -a 0 -i 13 -k AGT 
- -t 1.104000000 -s 0 -d -1 -p cbr -e 1000 -c 2 -a 0 -i 13 -k AGT
h -t 1.104000000 -s 0 -d -1 -p cbr -e 1000 -c 2 -a 0 -i 13 -k AGT
+ -t 1.104000000 -s 0 -d 4 -p cbr -e 1020 -c 2 -a 0 -i 13 -k RTR 
- -t 1.104000000 -s 0 -d 4 -p cbr -e 1020 -c 2 -a 0 -i 13 -k RTR
h -t 1.104000000 -s 0 -d 4 -p cbr -e 1020 -c 2 -a 0 -i 13 -k RTR
+ -t 1.107032362 -s 5 -d 9 -p cbr -e 1020 -c 2 -a 0 -i 5 -k RTR 
- -t 1.107032362 -s 5 -d 9 -p cbr -e 1020 -c 2 -a 0 -i 5 -k RTR
h -t 1.107032362 -s 5 -d 9 -p cbr -e 1020 -c 2 -a 0 -i 5 -k RTR
+ -t 1.112000000 -s 0 -d -1 -p cbr -e 1000 -c 2 -a 0 -i 14 -k AGT 
- -t 1.112000000 -s 0 -d -1 -p cbr -e 1000 -c 2 -a 0 -i 14 -k AGT
h -t 1.112000000 -s 0 -d -1 -p cbr -e 1000 -c 2 -a 0 -i 14 -k AGT
+ -t 1.112000000 -s 0 -d 4 -p cbr -e 1020 -c 2 -a 0 -i 14 -k RTR 
- -t 1.112000000 -s 0 -d 4 -p cbr -e 1020 -c 2 -a 0 -i 14 -k RTR
h -t 1.112000000 -s 0 -d 4 -p cbr -e 1020 -c 2 -a 0 -i 14 -k RTR
+ -t 1.116758362 -s 9 -d 10 -p cbr -e 1020 -c 2 -a 0 -i 5 -k RTR 
- -t 1.116758362 -s 9 -d 10 -p cbr -e 1020 -c 2 -a 0 -i 5 -k RTR
h -t 1.116758362 -s 9 -d 10 -p cbr -e 1020 -c 2 -a 0 -i 5 -k RTR
+ -t 1.120000000 -s 0 -d -1 -p cbr -e 1000 -c 2 -a 0 -i 15 -k AGT 
- -t 1.120000000 -s 0 -d -1 -p cbr -e 1000 -c 2 -a 0 -i 15 -k AGT
h -t 1.120000000 -s 0 -d -1 -p cbr -e 1000 -c 2 -a 0 -i 15 -k AGT
+ -t 1.120000000 -s 0 -d 4 -p cbr -e 1020 -c 2 -a 0 -i 15 -k RTR 
- -t 1.120000000 -s 0 -d 4 -p cbr -e 1020 -c 2 -a 0 -i 15 -k RTR
h -t 1.120000000 -s 0 -d 4 -p cbr -e 1020 -c 2 -a 0 -i 15 -k RTR
+ -t 1.126909853 -s 4 -d 5 -p cbr -e 1020 -c 2 -a 0 -i 1 -k RTR 
- -t 1.126909853 -s 4 -d 5 -p cbr -e 1020 -c 2 -a 0 -i 1 -k RTR
h -t 1.126909853 -s 4 -d 5 -p cbr -e 1020 -c 2 -a 0 -i 1 -k RTR
+ -t 1.128000000 -s 0 -d -1 -p cbr -e 1000 -c 2 -a 0 -i 16 -k AGT 
- -t 1.128000000 -s 0 -d -1 -p cbr -e 1000 -c 2 -a 0 -i 16 -k AGT
h -t 1.128000000 -s 0 -d -1 -p cbr -e 1000 -c 2 -a 0 -i 16 -k AGT
+ -t 1.128000000 -s 0 -d 4 -p cbr -e 1020 -c 2 -a 0 -i 16 -k RTR 
- -t 1.128000000 -s 0 -d 4 -p cbr -e 1020 -c 2 -a 0 -i 16 -k RTR
h -t 1.128000000 -s 0 -d 4 -p cbr -e 1020 -c 2 -a 0 -i 16 -k RTR
+ -t 1.136000000 -s 0 -d -1 -p cbr -e 1000 -c 2 -a 0 -i 17 -k AGT 
- -t 1.136000000 -s 0 -d -1 -p cbr -e 1000 -c 2 -a 0 -i 17 -k AGT
h -t 1.136000000 -s 0 -d -1 -p cbr -e 1000 -c 2 -a 0 -i 17 -k AGT
+ -t 1.136000000 -s 0 -d 4 -p cbr -e 1020 -c 2 -a 0 -i 17 -k RTR 
- -t 1.136000000 -s 0 -d 4 -p cbr -e 1020 -c 2 -a 0 -i 17 -k RTR
h -t 1.136000000 -s 0 -d 4 -p cbr -e 1020 -c 2 -a 0 -i 17 -k RTR
+ -t 1.136636519 -s 4 -d 5 -p cbr -e 1020 -c 2 -a 0 -i 7 -k RTR 
- -t 1.136636519 -s 4 -d 5 -p cbr -e 1020 -c 2 -a 0 -i 7 -k RTR
h -t 1.136636519 -s 4 -d 5 -p cbr -e 1020 -c 2 -a 0 -i 7 -k RTR
+ -t 1.144000000 -s 0 -d -1 -p cbr -e 1000 -c 2 -a 0 -i 18 -k AGT 
- -t 1.144000000 -s 0 -d -1 -p cbr -e 1000 -c 2 -a 0 -i 18 -k AGT
h -t 1.144000000 -s 0 -d -1 -p cbr -e 1000 -c 2 -a 0 -i 18 -k AGT
+ -t 1.144000000 -s 0 -d 4 -p cbr -e 1020 -c 2 -a 0 -i 18 -k RTR 
- -t 1.144000000 -s 0 -d 4 -p cbr -e 1020 -c 2 -a 0 -i 18 -k RTR
h -t 1.144000000 -s 0 -d 4 -p cbr -e 1020 -c 2 -a 0 -i 18 -k RTR
+ -t 1.146422519 -s 5 -d 9 -p cbr -e 1020 -c 2 -a 0 -i 6 -k RTR 
- -t 1.146422519 -s 5 -d 9 -p cbr -e 1020 -c 2 -a 0 -i 6 -k RTR
h -t 1.146422519 -s 5 -d 9 -p cbr -e 1020 -c 2 -a 0 -i 6 -k RTR
+ -t 1.152000000 -s 0 -d -1 -p cbr -e 1000 -c 2 -a 0 -i 19 -k AGT 
- -t 1.152000000 -s 0 -d -1 -p cbr -e 1000 -c 2 -a 0 -i 19 -k AGT
h -t 1.152000000 -s 0 -d -1 -p cbr -e 1000 -c 2 -a 0 -i 19 -k AGT
+ -t 1.152000000 -s 0 -d 4 -p cbr -e 1020 -c 2 -a 0 -i 19 -k RTR 
- -t 1.152000000 -s 0 -d 4 -p cbr -e 1020 -c 2 -a 0 -i 19 -k RTR
h -t 1.152000000 -s 0 -d 4 -p cbr -e 1020 -c 2 -a 0 -i 19 -k RTR
+ -t 1.156208519 -s 9 -d 10 -p cbr -e 1020 -c 2 -a 0 -i 6 -k RTR 
- -t 1.156208519 -s 9 -d 10 -p cbr -e 1020 -c 2 -a 0 -i 6 -k RTR
h -t 1.156208519 -s 9 -d 10 -p cbr -e 1020 -c 2 -a 0 -i 6 -k RTR
+ -t 1.160000000 -s 0 -d -1 -p cbr -e 1000 -c 2 -a 0 -i 20 -k AGT 
- -t 1.160000000 -s 0 -d -1 -p cbr -e 1000 -c 2 -a 0 -i 20 -k AGT
h -t 1.160000000 -s 0 -d -1 -p cbr -e 1000 -c 2 -a 0 -i 20 -k AGT
+ -t 1.160000000 -s 0 -d 4 -p cbr -e 1020 -c 2 -a 0 -i 20 -k RTR 
- -t 1.160000000 -s 0 -d 4 -p cbr -e 1020 -c 2 -a 0 -i 20 -k RTR
h -t 1.160000000 -s 0 -d 4 -p cbr -e 1020 -c 2 -a 0 -i 20 -k RTR
r -t 1.165934519 -s 10 -d 10 -p cbr -e 1020 -c 2 -a 0 -i 5 -k AGT
+ -t 1.168000000 -s 0 -d -1 -p cbr -e 1000 -c 2 -a 0 -i 21 -k AGT 
- -t 1.168000000 -s 0 -d -1 -p cbr -e 1000 -c 2 -a 0 -i 21 -k AGT
h -t 1.168000000 -s 0 -d -1 -p cbr -e 1000 -c 2 -a 0 -i 21 -k AGT
+ -t 1.168000000 -s 0 -d 4 -p cbr -e 1020 -c 2 -a 0 -i 21 -k RTR 
- -t 1.168000000 -s 0 -d 4 -p cbr -e 1020 -c 2 -a 0 -i 21 -k RTR
h -t 1.168000000 -s 0 -d 4 -p cbr -e 1020 -c 2 -a 0 -i 21 -k RTR
+ -t 1.176000000 -s 0 -d -1 -p cbr -e 1000 -c 2 -a 0 -i 22 -k AGT 
- -t 1.176000000 -s 0 -d -1 -p cbr -e 1000 -c 2 -a 0 -i 22 -k AGT
h -t 1.176000000 -s 0 -d -1 -p cbr -e 1000 -c 2 -a 0 -i 22 -k AGT
+ -t 1.176000000 -s 0 -d 4 -p cbr -e 1020 -c 2 -a 0 -i 22 -k RTR 
- -t 1.176000000 -s 0 -d 4 -p cbr -e 1020 -c 2 -a 0 -i 22 -k RTR
h -t 1.176000000 -s 0 -d 4 -p cbr -e 1020 -c 2 -a 0 -i 22 -k RTR
+ -t 1.176131343 -s 4 -d 5 -p cbr -e 1020 -c 2 -a 0 -i 2 -k RTR 
- -t 1.176131343 -s 4 -d 5 -p cbr -e 1020 -c 2 -a 0 -i 2 -k RTR
h -t 1.176131343 -s 4 -d 5 -p cbr -e 1020 -c 2 -a 0 -i 2 -k RTR
+ -t 1.184000000 -s 0 -d -1 -p cbr -e 1000 -c 2 -a 0 -i 23 -k AGT 
- -t 1.184000000 -s 0 -d -1 -p cbr -e 1000 -c 2 -a 0 -i 23 -k AGT
h -t 1.184000000 -s 0 -d -1 -p cbr -e 1000 -c 2 -a 0 -i 23 -k AGT
+ -t 1.184000000 -s 0 -d 4 -p cbr -e 1020 -c 2 -a 0 -i 23 -k RTR 
- -t 1.184000000 -s 0 -d 4 -p cbr -e 1020 -c 2 -a 0 -i 23 -k RTR
h -t 1.184000000 -s 0 -d 4 -p cbr -e 1020 -c 2 -a 0 -i 23 -k RTR
+ -t 1.186098010 -s 4 -d 5 -p cbr -e 1020 -c 2 -a 0 -i 8 -k RTR 
- -t 1.186098010 -s 4 -d 5 -p cbr -e 1020 -c 2 -a 0 -i 8 -k RTR
h -t 1.186098010 -s 4 -d 5 -p cbr -e 1020 -c 2 -a 0 -i 8 -k RTR
+ -t 1.192000000 -s 0 -d -1 -p cbr -e 1000 -c 2 -a 0 -i 24 -k AGT 
- -t 1.192000000 -s 0 -d -1 -p cbr -e 1000 -c 2 -a 0 -i 24 -k AGT
h -t 1.192000000 -s 0 -d -1 -p cbr -e 1000 -c 2 -a 0 -i 24 -k AGT
+ -t 1.192000000 -s 0 -d 4 -p cbr -e 1020 -c 2 -a 0 -i 24 -k RTR 
- -t 1.192000000 -s 0 -d 4 -p cbr -e 1020 -c 2 -a 0 -i 24 -k RTR
h -t 1.192000000 -s 0 -d 4 -p cbr -e 1020 -c 2 -a 0 -i 24 -k RTR
+ -t 1.195804010 -s 5 -d 9 -p cbr -e 1020 -c 2 -a 0 -i 1 -k RTR 
- -t 1.195804010 -s 5 -d 9 -p cbr -e 1020 -c 2 -a 0 -i 1 -k RTR
h -t 1.195804010 -s 5 -d 9 -p cbr -e 1020 -c 2 -a 0 -i 1 -k RTR
+ -t 1.200000000 -s 0 -d -1 -p cbr -e 1000 -c 2 -a 0 -i 25 -k AGT 
- -t 1.200000000 -s 0 -d -1 -p cbr -e 1000 -c 2 -a 0 -i 25 -k AGT
h -t 1.200000000 -s 0 -d -1 -p cbr -e 1000 -c 2 -a 0 -i 25 -k AGT
+ -t 1.200000000 -s 0 -d 4 -p cbr -e 1020 -c 2 -a 0 -i 25 -k RTR 
- -t 1.200000000 -s 0 -d 4 -p cbr -e 1020 -c 2 -a 0 -i 25 -k RTR
h -t 1.200000000 -s 0 -d 4 -p cbr -e 1020 -c 2 -a 0 -i 25 -k RTR
r -t 1.205540286 -s 10 -d 10 -p cbr -e 1020 -c 2 -a 0 -i 6 -k AGT
+ -t 1.208000000 -s 0 -d -1 -p cbr -e 1000 -c 2 -a 0 -i 26 -k AGT 
- -t 1.208000000 -s 0 -d -1 -p cbr -e 1000 -c 2 -a 0 -i 26 -k AGT
h -t 1.208000000 -s 0 -d -1 -p cbr -e 1000 -c 2 -a 0 -i 26 -k AGT
+ -t 1.208000000 -s 0 -d 4 -p cbr -e 1020 -c 2 -a 0 -i 26 -k RTR 
- -t 1.208000000 -s 0 -d 4 -p cbr -e 1020 -c 2 -a 0 -i 26 -k RTR
h -t 1.208000000 -s 0 -d 4 -p cbr -e 1020 -c 2 -a 0 -i 26 -k RTR
+ -t 1.215537110 -s 4 -d 5 -p cbr -e 1020 -c 2 -a 0 -i 3 -k RTR 
- -t 1.215537110 -s 4 -d 5 -p cbr -e 1020 -c 2 -a 0 -i 3 -k RTR
h -t 1.215537110 -s 4 -d 5 -p cbr -e 1020 -c 2 -a 0 -i 3 -k RTR
+ -t 1.216000000 -s 0 -d -1 -p cbr -e 1000 -c 2 -a 0 -i 27 -k AGT 
- -t 1.216000000 -s 0 -d -1 -p cbr -e 1000 -c 2 -a 0 -i 27 -k AGT
h -t 1.216000000 -s 0 -d -1 -p cbr -e 1000 -c 2 -a 0 -i 27 -k AGT
+ -t 1.216000000 -s 0 -d 4 -p cbr -e 1020 -c 2 -a 0 -i 27 -k RTR 
- -t 1.216000000 -s 0 -d 4 -p cbr -e 1020 -c 2 -a 0 -i 27 -k RTR
h -t 1.216000000 -s 0 -d 4 -p cbr -e 1020 -c 2 -a 0 -i 27 -k RTR
+ -t 1.224000000 -s 0 -d -1 -p cbr -e 1000 -c 2 -a 0 -i 28 -k AGT 
- -t 1.224000000 -s 0 -d -1 -p cbr -e 1000 -c 2 -a 0 -i 28 -k AGT
h -t 1.224000000 -s 0 -d -1 -p cbr -e 1000 -c 2 -a 0 -i 28 -k AGT
+ -t 1.224000000 -s 0 -d 4 -p cbr -e 1020 -c 2 -a 0 -i 28 -k RTR 
- -t 1.224000000 -s 0 -d 4 -p cbr -e 1020 -c 2 -a 0 -i 28 -k RTR
h -t 1.224000000 -s 0 -d 4 -p cbr -e 1020 -c 2 -a 0 -i 28 -k RTR
+ -t 1.225483110 -s 5 -d 9 -p cbr -e 1020 -c 2 -a 0 -i 7 -k RTR 
- -t 1.225483110 -s 5 -d 9 -p cbr -e 1020 -c 2 -a 0 -i 7 -k RTR
h -t 1.225483110 -s 5 -d 9 -p cbr -e 1020 -c 2 -a 0 -i 7 -k RTR
+ -t 1.232000000 -s 0 -d -1 -p cbr -e 1000 -c 2 -a 0 -i 29 -k AGT 
- -t 1.232000000 -s 0 -d -1 -p cbr -e 1000 -c 2 -a 0 -i 29 -k AGT
h -t 1.232000000 -s 0 -d -1 -p cbr -e 1000 -c 2 -a 0 -i 29 -k AGT
+ -t 1.232000000 -s 0 -d 4 -p cbr -e 1020 -c 2 -a 0 -i 29 -k RTR 
- -t 1.232000000 -s 0 -d 4 -p cbr -e 1020 -c 2 -a 0 -i 29 -k RTR
h -t 1.232000000 -s 0 -d 4 -p cbr -e 1020 -c 2 -a 0 -i 29 -k RTR
+ -t 1.235169110 -s 9 -d 10 -p cbr -e 1020 -c 2 -a 0 -i 1 -k RTR 
- -t 1.235169110 -s 9 -d 10 -p cbr -e 1020 -c 2 -a 0 -i 1 -k RTR
h -t 1.235169110 -s 9 -d 10 -p cbr -e 1020 -c 2 -a 0 -i 1 -k RTR
+ -t 1.240000000 -s 0 -d -1 -p cbr -e 1000 -c 2 -a 0 -i 30 -k AGT 
- -t 1.240000000 -s 0 -d -1 -p cbr -e 1000 -c 2 -a 0 -i 30 -k AGT
h -t 1.240000000 -s 0 -d -1 -p cbr -e 1000 -c 2 -a 0 -i 30 -k AGT
+ -t 1.240000000 -s 0 -d 4 -p cbr -e 1020 -c 2 -a 0 -i 30 -k RTR 
- -t 1.240000000 -s 0 -d 4 -p cbr -e 1020 -c 2 -a 0 -i 30 -k RTR
h -t 1.240000000 -s 0 -d 4 -p cbr -e 1020 -c 2 -a 0 -i 30 -k RTR
+ -t 1.244995777 -s 9 -d 10 -p cbr -e 1020 -c 2 -a 0 -i 7 -k RTR 
- -t 1.244995777 -s 9 -d 10 -p cbr -e 1020 -c 2 -a 0 -i 7 -k RTR
h -t 1.244995777 -s 9 -d 10 -p cbr -e 1020 -c 2 -a 0 -i 7 -k RTR
+ -t 1.248000000 -s 0 -d -1 -p cbr -e 1000 -c 2 -a 0 -i 31 -k AGT 
- -t 1.248000000 -s 0 -d -1 -p cbr -e 1000 -c 2 -a 0 -i 31 -k AGT
h -t 1.248000000 -s 0 -d -1 -p cbr -e 1000 -c 2 -a 0 -i 31 -k AGT
+ -t 1.248000000 -s 0 -d 4 -p cbr -e 1020 -c 2 -a 0 -i 31 -k RTR 
- -t 1.248000000 -s 0 -d 4 -p cbr -e 1020 -c 2 -a 0 -i 31 -k RTR
h -t 1.248000000 -s 0 -d 4 -p cbr -e 1020 -c 2 -a 0 -i 31 -k RTR
r -t 1.254681777 -s 10 -d 10 -p cbr -e 1020 -c 2 -a 0 -i 1 -k AGT
+ -t 1.256000000 -s 0 -d -1 -p cbr -e 1000 -c 2 -a 0 -i 32 -k AGT 
- -t 1.256000000 -s 0 -d -1 -p cbr -e 1000 -c 2 -a 0 -i 32 -k AGT
h -t 1.256000000 -s 0 -d -1 -p cbr -e 1000 -c 2 -a 0 -i 32 -k AGT
+ -t 1.256000000 -s 0 -d 4 -p cbr -e 1020 -c 2 -a 0 -i 32 -k RTR 
- -t 1.256000000 -s 0 -d 4 -p cbr -e 1020 -c 2 -a 0 -i 32 -k RTR
h -t 1.256000000 -s 0 -d 4 -p cbr -e 1020 -c 2 -a 0 -i 32 -k RTR
+ -t 1.264000000 -s 0 -d -1 -p cbr -e 1000 -c 2 -a 0 -i 33 -k AGT 
- -t 1.264000000 -s 0 -d -1 -p cbr -e 1000 -c 2 -a 0 -i 33 -k AGT
h -t 1.264000000 -s 0 -d -1 -p cbr -e 1000 -c 2 -a 0 -i 33 -k AGT
+ -t 1.264000000 -s 0 -d 4 -p cbr -e 1020 -c 2 -a 0 -i 33 -k RTR 
- -t 1.264000000 -s 0 -d 4 -p cbr -e 1020 -c 2 -a 0 -i 33 -k RTR
h -t 1.264000000 -s 0 -d 4 -p cbr -e 1020 -c 2 -a 0 -i 33 -k RTR
+ -t 1.264718601 -s 4 -d 5 -p cbr -e 1020 -c 2 -a 0 -i 9 -k RTR 
- -t 1.264718601 -s 4 -d 5 -p cbr -e 1020 -c 2 -a 0 -i 9 -k RTR
h -t 1.264718601 -s 4 -d 5 -p cbr -e 1020 -c 2 -a 0 -i 9 -k RTR
+ -t 1.272000000 -s 0 -d -1 -p cbr -e 1000 -c 2 -a 0 -i 34 -k AGT 
- -t 1.272000000 -s 0 -d -1 -p cbr -e 1000 -c 2 -a 0 -i 34 -k AGT
h -t 1.272000000 -s 0 -d -1 -p cbr -e 1000 -c 2 -a 0 -i 34 -k AGT
+ -t 1.272000000 -s 0 -d 4 -p cbr -e 1020 -c 2 -a 0 -i 34 -k RTR 
- -t 1.272000000 -s 0 -d 4 -p cbr -e 1020 -c 2 -a 0 -i 34 -k RTR
h -t 1.272000000 -s 0 -d 4 -p cbr -e 1020 -c 2 -a 0 -i 34 -k RTR
+ -t 1.274505268 -s 4 -d 5 -p cbr -e 1020 -c 2 -a 0 -i 4 -k RTR 
- -t 1.274505268 -s 4 -d 5 -p cbr -e 1020 -c 2 -a 0 -i 4 -k RTR
h -t 1.274505268 -s 4 -d 5 -p cbr -e 1020 -c 2 -a 0 -i 4 -k RTR
+ -t 1.280000000 -s 0 -d -1 -p cbr -e 1000 -c 2 -a 0 -i 35 -k AGT 
- -t 1.280000000 -s 0 -d -1 -p cbr -e 1000 -c 2 -a 0 -i 35 -k AGT
h -t 1.280000000 -s 0 -d -1 -p cbr -e 1000 -c 2 -a 0 -i 35 -k AGT
+ -t 1.280000000 -s 0 -d 4 -p cbr -e 1020 -c 2 -a 0 -i 35 -k RTR 
- -t 1.280000000 -s 0 -d 4 -p cbr -e 1020 -c 2 -a 0 -i 35 -k RTR
h -t 1.280000000 -s 0 -d 4 -p cbr -e 1020 -c 2 -a 0 -i 35 -k RTR
+ -t 1.284271268 -s 5 -d 9 -p cbr -e 1020 -c 2 -a 0 -i 2 -k RTR 
- -t 1.284271268 -s 5 -d 9 -p cbr -e 1020 -c 2 -a 0 -i 2 -k RTR
h -t 1.284271268 -s 5 -d 9 -p cbr -e 1020 -c 2 -a 0 -i 2 -k RTR
+ -t 1.288000000 -s 0 -d -1 -p cbr -e 1000 -c 2 -a 0 -i 36 -k AGT 
- -t 1.288000000 -s 0 -d -1 -p cbr -e 1000 -c 2 -a 0 -i 36 -k AGT
h -t 1.288000000 -s 0 -d -1 -p cbr -e 1000 -c 2 -a 0 -i 36 -k AGT
+ -t 1.288000000 -s 0 -d 4 -p cbr -e 1020 -c 2 -a 0 -i 36 -k RTR 
- -t 1.288000000 -s 0 -d 4 -p cbr -e 1020 -c 2 -a 0 -i 36 -k RTR
h -t 1.288000000 -s 0 -d 4 -p cbr -e 1020 -c 2 -a 0 -i 36 -k RTR
r -t 1.294027544 -s 10 -d 10 -p cbr -e 1020 -c 2 -a 0 -i 7 -k AGT
+ -t 1.296000000 -s 0 -d -1 -p cbr -e 1000 -c 2 -a 0 -i 37 -k AGT 
- -t 1.296000000 -s 0 -d -1 -p cbr -e 1000 -c 2 -a 0 -i 37 -k AGT
h -t 1.296000000 -s 0 -d -1 -p cbr -e 1000 -c 2 -a 0 -i 37 -k AGT
+ -t 1.296000000 -s 0 -d 4 -p cbr -e 1020 -c 2 -a 0 -i 37 -k RTR 
- -t 1.296000000 -s 0 -d 4 -p cbr -e 1020 -c 2 -a 0 -i 37 -k RTR
h -t 1.296000000 -s 0 -d 4 -p cbr -e 1020 -c 2 -a 0 -i 37 -k RTR
+ -t 1.303824368 -s 4 -d 5 -p cbr -e 1020 -c 2 -a 0 -i 10 -k RTR 
- -t 1.303824368 -s 4 -d 5 -p cbr -e 1020 -c 2 -a 0 -i 10 -k RTR
h -t 1.303824368 -s 4 -d 5 -p cbr -e 1020 -c 2 -a 0 -i 10 -k RTR
+ -t 1.304000000 -s 0 -d -1 -p cbr -e 1000 -c 2 -a 0 -i 38 -k AGT 
- -t 1.304000000 -s 0 -d -1 -p cbr -e 1000 -c 2 -a 0 -i 38 -k AGT
h -t 1.304000000 -s 0 -d -1 -p cbr -e 1000 -c 2 -a 0 -i 38 -k AGT
+ -t 1.304000000 -s 0 -d 4 -p cbr -e 1020 -c 2 -a 0 -i 38 -k RTR 
- -t 1.304000000 -s 0 -d 4 -p cbr -e 1020 -c 2 -a 0 -i 38 -k RTR
h -t 1.304000000 -s 0 -d 4 -p cbr -e 1020 -c 2 -a 0 -i 38 -k RTR
+ -t 1.312000000 -s 0 -d -1 -p cbr -e 1000 -c 2 -a 0 -i 39 -k AGT 
- -t 1.312000000 -s 0 -d -1 -p cbr -e 1000 -c 2 -a 0 -i 39 -k AGT
h -t 1.312000000 -s 0 -d -1 -p cbr -e 1000 -c 2 -a 0 -i 39 -k AGT
+ -t 1.312000000 -s 0 -d 4 -p cbr -e 1020 -c 2 -a 0 -i 39 -k RTR 
- -t 1.312000000 -s 0 -d 4 -p cbr -e 1020 -c 2 -a 0 -i 39 -k RTR
h -t 1.312000000 -s 0 -d 4 -p cbr -e 1020 -c 2 -a 0 -i 39 -k RTR
+ -t 1.314537701 -s 5 -d 9 -p cbr -e 1020 -c 2 -a 0 -i 8 -k RTR 
- -t 1.314537701 -s 5 -d 9 -p cbr -e 1020 -c 2 -a 0 -i 8 -k RTR
h -t 1.314537701 -s 5 -d 9 -p cbr -e 1020 -c 2 -a 0 -i 8 -k RTR
+ -t 1.320000000 -s 0 -d -1 -p cbr -e 1000 -c 2 -a 0 -i 40 -k AGT 
- -t 1.320000000 -s 0 -d -1 -p cbr -e 1000 -c 2 -a 0 -i 40 -k AGT
h -t 1.320000000 -s 0 -d -1 -p cbr -e 1000 -c 2 -a 0 -i 40 -k AGT
+ -t 1.320000000 -s 0 -d 4 -p cbr -e 1020 -c 2 -a 0 -i 40 -k RTR 
- -t 1.320000000 -s 0 -d 4 -p cbr -e 1020 -c 2 -a 0 -i 40 -k RTR
h -t 1.320000000 -s 0 -d 4 -p cbr -e 1020 -c 2 -a 0 -i 40 -k RTR
+ -t 1.324243701 -s 9 -d 10 -p cbr -e 1020 -c 2 -a 0 -i 2 -k RTR 
- -t 1.324243701 -s 9 -d 10 -p cbr -e 1020 -c 2 -a 0 -i 2 -k RTR
h -t 1.324243701 -s 9 -d 10 -p cbr -e 1020 -c 2 -a 0 -i 2 -k RTR
+ -t 1.328000000 -s 0 -d -1 -p cbr -e 1000 -c 2 -a 0 -i 41 -k AGT 
- -t 1.328000000 -s 0 -d -1 -p cbr -e 1000 -c 2 -a 0 -i 41 -k AGT
h -t 1.328000000 -s 0 -d -1 -p cbr -e 1000 -c 2 -a 0 -i 41 -k AGT
+ -t 1.328000000 -s 0 -d 4 -p cbr -e 1020 -c 2 -a 0 -i 41 -k RTR 
- -t 1.328000000 -s 0 -d 4 -p cbr -e 1020 -c 2 -a 0 -i 41 -k RTR
h -t 1.328000000 -s 0 -d 4 -p cbr -e 1020 -c 2 -a 0 -i 41 -k RTR
+ -t 1.334230368 -s 9 -d 10 -p cbr -e 1020 -c 2 -a 0 -i 8 -k RTR 
- -t 1.334230368 -s 9 -d 10 -p cbr -e 1020 -c 2 -a 0 -i 8 -k RTR
h -t 1.334230368 -s 9 -d 10 -p cbr -e 1020 -c 2 -a 0 -i 8 -k RTR
+ -t 1.336000000 -s 0 -d -1 -p cbr -e 1000 -c 2 -a 0 -i 42 -k AGT 
- -t 1.336000000 -s 0 -d -1 -p cbr -e 1000 -c 2 -a 0 -i 42 -k AGT
h -t 1.336000000 -s 0 -d -1 -p cbr -e 1000 -c 2 -a 0 -i 42 -k AGT
+ -t 1.336000000 -s 0 -d 4 -p cbr -e 1020 -c 2 -a 0 -i 42 -k RTR 
- -t 1.336000000 -s 0 -d 4 -p cbr -e 1020 -c 2 -a 0 -i 42 -k RTR
h -t 1.336000000 -s 0 -d 4 -p cbr -e 1020 -c 2 -a 0 -i 42 -k RTR
+ -t 1.344000000 -s 0 -d -1 -p cbr -e 1000 -c 2 -a 0 -i 43 -k AGT 
- -t 1.344000000 -s 0 -d -1 -p cbr -e 1000 -c 2 -a 0 -i 43 -k AGT
h -t 1.344000000 -s 0 -d -1 -p cbr -e 1000 -c 2 -a 0 -i 43 -k AGT
+ -t 1.344000000 -s 0 -d 4 -p cbr -e 1020 -c 2 -a 0 -i 43 -k RTR 
- -t 1.344000000 -s 0 -d 4 -p cbr -e 1020 -c 2 -a 0 -i 43 -k RTR
h -t 1.344000000 -s 0 -d 4 -p cbr -e 1020 -c 2 -a 0 -i 43 -k RTR
r -t 1.344076368 -s 10 -d 10 -p cbr -e 1020 -c 2 -a 0 -i 2 -k AGT